
                                 *****************
                                 * O   R   C   A *
                                 *****************

                                            #,                                       
                                            ###                                      
                                            ####                                     
                                            #####                                    
                                            ######                                   
                                           ########,                                 
                                     ,,################,,,,,                         
                               ,,#################################,,                 
                          ,,##########################################,,             
                       ,#########################################, ''#####,          
                    ,#############################################,,   '####,        
                  ,##################################################,,,,####,       
                ,###########''''           ''''###############################       
              ,#####''   ,,,,##########,,,,          '''####'''          '####       
            ,##' ,,,,###########################,,,                        '##       
           ' ,,###''''                  '''############,,,                           
         ,,##''                                '''############,,,,        ,,,,,,###''
      ,#''                                            '''#######################'''  
     '                                                          ''''####''''         
             ,#######,   #######,   ,#######,      ##                                
            ,#'     '#,  ##    ##  ,#'     '#,    #''#        ,####,    ,#,          
            ##       ##  ##   ,#'  ##            #'  '#       #'       ,# #          
            ##       ##  #######   ##           ,######,      #####,      #          
            '#,     ,#'  ##    ##  '#,     ,#' ,#      #,     #,   #      #          
             '#######'   ##     ##  '#######'  #'      '#     '####' #    #          



                #########################################################
                #                        -***-                          #
                #          Department of theory and spectroscopy        #
                #                                                       #
                #                      Frank Neese                      #
                #                                                       #
                #     Directorship, Architecture, Infrastructure        #
                #                    SHARK, DRIVERS                     #
                #        Core code/Algorithms in most modules           #
                #                                                       #
                #        Max Planck Institute fuer Kohlenforschung      #
                #                Kaiser Wilhelm Platz 1                 #
                #                 D-45470 Muelheim/Ruhr                 #
                #                      Germany                          #
                #                                                       #
                #                  All rights reserved                  #
                #                        -***-                          #
                #########################################################


                         Program Version 6.1.1  -  RELEASE   -
                                (GIT: $487d211c$)
                          ($2025-11-21 10:33:24 +0100$)


 With contributions from (in alphabetic order):
[Max-Planck-Institut fuer Kohlenforschung]                               
  Daniel Aravena         : Magnetic Suceptibility                        
  Michael Atanasov       : Ab Initio Ligand Field Theory (pilot matlab implementation)
  Alexander A. Auer      : GIAO ZORA, VPT2 properties, NMR spectrum      
  Ute Becker             : All parallelization in ORCA, NUMFREQ, NUMCALC 
  Giovanni Bistoni       : ED, misc. LED, open-shell LED, HFLD           
  Dmytro Bykov           : pre 5.0 version of the SCF Hessian            
  Marcos Casanova-Páez   : Triplet and SCS-CIS(D). UHF-(DLPNO)-IP/EA/STEOM-CCSD. UHF-CVS-IP/STEOM-CCSD   
  Vijay G. Chilkuri      : MRCI spin determinant printing, contributions to CSF-ICE 
  Pauline Colinet        : FMM embedding                                 
  Dipayan Datta          : RHF DLPNO-CCSD density                        
  Achintya Kumar Dutta   : EOM-CC, STEOM-CC                              
  Nicolas Foglia         : Exact transition moments, OPA infrastructure, MCD improvements    
  Dmitry Ganyushin       : Spin-Orbit,Spin-Spin,Magnetic field MRCI      
  Miquel Garcia-Rates    : C-PCM and meta-GGA Hessian, CCSD/C-PCM, Gaussian charge scheme 
  Tiago L. C. Gouveia    : GS-ROHF, GS-ROCIS                             
  Yang Guo               : DLPNO-NEVPT2, F12-NEVPT2, CIM, IAO-localization        
  Andreas Hansen         : Spin unrestricted coupled pair/coupled cluster methods 
  Ingolf Harden          : AUTO-CI MPn and infrastructure                
  Benjamin Helmich-Paris : MC-RPA, TRAH-(SCF,CASSCF), AVAS, COSX integrals, SCF dyn. polar., MC-PDFT, srDFT 
  Lee Huntington         : MR-EOM, pCC                                   
  Robert Izsak           : Overlap fitted RIJCOSX, COSX-SCS-MP3, EOM     
  Riya Kayal             : Wick's Theorem for AUTO-CI, AUTO-CI UHF-CCSDT 
  Emily Kempfer          : AUTO-CI RHF CISDT and CCSDT, approximate NEVPT4
  Christian Kollmar      : KDIIS, OOCD, Brueckner-CCSD(T), CCSD density, CASPT2, CASPT2-K, improved NEVPT2 
  Axel Koslowski         : Symmetry handling                             
  Simone Kossmann        : meta-GGA functionals, TD-DFT gradient, OOMP2, (MP2 Hessian; deprecated post 5.0) 
  Lucas Lang             : DCDCAS, Hyperfine gauge corrections, ICE-SOC+SSC
  Marvin Lechner         : AUTO-CI (C++ implementation), FIC-MRCC        
  Spencer Leger          : CASSCF response                               
  Dagmar Lenk            : GEPOL surface, SMD, ORCA-2-JSON               
  Dimitrios Liakos       : Extrapolation schemes; Compound Job, Property file
  Dimitrios Manganas     : Further ROCIS development; embedding schemes. LFT, Crystal Embedding 
  Dimitrios Pantazis     : SARC Basis sets                               
  Anastasios Papadopoulos: AUTO-CI, single reference methods and gradients 
  Taras Petrenko         : pre 6.0 DFT Hessian and TD-DFT gradient,  ECA, NRVS 
  Petra Pikulova         : Analytic Raman intensities                    
  Peter Pinski           : DLPNO-MP2, DLPNO-MP2 Gradient                 
  Shashank Vittal Rao    : ES-AILFT, MagRelax                            
  Christoph Reimann      : Effective Core Potentials                     
  Marius Retegan         : Local ZFS, SOC                                
  Christoph Riplinger    : Optimizer, TS searches, QM/MM, DLPNO-CCSD(T), (RO)-DLPNO pert. Triples 
  Michael Roemelt        : Original ROCIS implementation, recursive CI coupling coefficients
  Masaaki Saitow         : Open-shell DLPNO-CCSD energy and density      
  Barbara Sandhoefer     : DKH picture change effects                    
  Yorick L. A. Schmerwitz: GMF and freeze-and-release deltaSCF, NEB S-IDPP initial path                    
  Kantharuban Sivalingam : CASSCF convergence/infrastructure, NEVPT2, NEVPT3, NEVPT4(SD), FIC-MRCI and CEPA variants
  Bernardo de Souza      : ESD, SOC TD-DFT                               
  Georgi L. Stoychev     : AutoAux, RI-MP2 NMR, DLPNO-MP2 response, X2C  
  Van Anh Tran           : RI-MP2 g-tensors                              
  Willem Van den Heuvel  : Paramagnetic NMR                              
  Zikuan Wang            : NOTCH, Electric field optimization            
  Frank Wennmohs         : Technical directorship and infrastructure     
  Hang Xu                : AUTO-CI-Response properties                   
                                                                         
[FACCTs GmbH]                                                            
  Markus Bursch, Nicolas Foglia, Miquel Garcia-Rates, Ingolf Harden, Hagen Neugebauer, Anastasios Papadopoulos, 
  Christoph Riplinger, Bernardo de Souza, Georgi L. Stoychev                                                    
                                                                 
  APM, various basis sets, CI-OPT, improved COSX, DLPNO-Multilevel,           
  DOCKER, DRACO, updates on ESD, Fragmentator, GOAT, IRC, LR-CPCM, L-BFGS, MBIS, meta-GGA TD-DFT gradient, ML-optimized integration grids, 
  MM, NACMEs, nearIR, NEB, NEB-TS, NL-DFT gradient (VV10), 2- and 3-layer-ONIOM, interface openCOSMO-RS, QMMM,   
  Crystal-QMMM, RESP, rigid body optimization, SF, symmetry and pop. for TD-DFT, various functionals, SOLVATOR                                   
                                                                         
[Other institutions]                                                     
  V. Asgeirsson          : NEB                                           
  Christoph Bannwarth    : sTDA-DFT, sTD-DFT, PBEh-3c, B97-3c, D3        
  Giovanni Bistoni       : ETS/NOCV, ADLD/ADEX, COVALED                  
  Martin Brehm           : Molecular dynamics                            
  Ronald Cardenas        : ETS/NOCV                                      
  Martina Colucci        : COVALED                                       
  Sebastian Ehlert       : rSCAN, r2SCAN, r2SCAN-3c, D4, dhf basis sets  
  Marvin Friede          : D4 for Fr, Ra, Ac-Lr                          
  Lars Goerigk           : TD-DFT with DH, B97 family of functionals     
  Stefan Grimme          : VdW corrections, initial TS optimization, DFT functionals, gCP, sTDA/sTD-DF 
  Waldemar Hujo          : DFT-NL                                        
  H. Jonsson             : NEB                                           
  Holger Kruse           : gCP                                           
  Marcel Mueller         : wB97X-3c, vDZP basis set                      
  Hagen Neugebauer       : wr2SCAN, Native XTB                           
  Gianluca Regni         : ADLD/ADEX                                     
  Tobias Risthaus        : pre 6.0 range-separated hybrid DFT and stability analysis
  Lukas Wittmann         : regularized MP2, r2SCAN double-hybrids, wr2SCAN        
                                                                         
We gratefully acknowledge several colleagues who have allowed us to      
interface, adapt or use parts of their codes:                            
  Ed Valeev, F. Pavosevic, A. Kumar             : LibInt (2-el integral package), F12 methods 
  Garnet Chan, S. Sharma, J. Yang, R. Olivares  : DMRG                   
  Ulf Ekstrom                                   : XCFun DFT Library      
  Mihaly Kallay                                 : mrcc  (arbitrary order and MRCC methods)
  Frank Weinhold                                : gennbo (NPA and NBO analysis)           
  Simon Mueller                                 : openCOSMO-RS                            
  Christopher J. Cramer and Donald G. Truhlar   : smd solvation model                     
  S Lehtola, MJT Oliveira, MAL Marques          : LibXC Library                           
  Liviu Ungur et al                             : ANISO software                          


 Your calculation uses the libint2 library for the computation of 2-el integrals
 For citations please refer to: http://libint.valeyev.net

 Your ORCA version has been built with support for libXC version: 7.0.0
 For citations please refer to: https://libxc.gitlab.io

 This ORCA versions uses:
   CBLAS   interface :  Fast vector & matrix operations
   LAPACKE interface :  Fast linear algebra routines
   SCALAPACK package :  Parallel linear algebra routines
   Shared memory     :  Shared parallel matrices
   BLAS/LAPACK       :  OpenBLAS 0.3.29  USE64BITINT DYNAMIC_ARCH NO_AFFINITY Zen SINGLE_THREADED
        Core in use  :  Zen
   Copyright (c) 2011-2014, The OpenBLAS Project


  ***********************************
  * Starting time: Tue Mar 10 14:18:56 2026
  * Host name:     a2-20
  * Process ID:    1332049
  * Working dir.:  /tmp/lscratch/avcopan/43461019
  ***********************************

NOTE: MaxCore=6000 MB was set to SCF,MP2,MDCI,CIPSI,MRCI,RASCI and CIS
      => If you want to overwrite this, your respective input block should be placed after the MaxCore statement


***************************************
The coordinates will be read from file: opt.xyz
***************************************


================================================================================

----- Orbital basis set information -----
Your calculation utilizes the basis: cc-pVDZ-F12 

----- AuxC basis set information -----
Your calculation utilizes the auxiliary basis: cc-pVTZ/C 
  Obtained from the EMSL Basis Set Exchange (bse.pnl.gov) Feb. 2017
  H-He, B-F, Al-Ar, Ga-Kr : F. Weigend, A. Kohn, C. Hattig, J. Chem. Phys. 116, 3175 (2002)
             Li-Be, Na-Mg : C. Haettig, Phys. Chem. Chem. Phys. 7, 59 (2005)
                       Ne : C. Haettig, Phys. Chem. Chem. Phys. 7, 59 (2005)
                            F. Weigend, A. Kohn, C. Hattig, J. Chem. Phys. 116, 3175 (2002)
                    Sc-Zn : J. G. Hill, J. A. Platts, J. Chem. Phys. 128, 044104 (2008)

----- CABS information -----
Your calculation utilizes the basis: cc-pVDZ-F12 


                    <<< The CABS basis set will be decontracted >>>

================================================================================
                                        WARNINGS
                       Please study these warnings very carefully!
================================================================================


WARNING: Post HF methods need fully converged wavefunctions
  ===> : Setting SCFConvForced true
         You can overwrite this default with %scf ConvForced false 


WARNING: MDCI localization with Augmented Hessian Foster-Boys
  ===> : Switching off randomization!

WARNING: UseCISUpdate is  only available for RHF calculations...
  ===> : Setting UseCISUpdate = false 

================================================================================
                                       INPUT FILE
================================================================================
NAME = sp.inp
|  1> # 
|  2> % MaxCore 6000
|  3> ! PAL8
|  4> ! uhf ccsd(t)-f12/ri cc-pvdz-f12 cc-pvdz-f12-cabs cc-pvtz/c
|  5> * xyzfile 0 2 opt.xyz
|  6> 
|  7> 
|  8>                          ****END OF INPUT****
================================================================================

                       ****************************
                       * Single Point Calculation *
                       ****************************

---------------------------------
CARTESIAN COORDINATES (ANGSTROEM)
---------------------------------
  O      0.000000    0.000000    0.000553
  H      0.000000    0.000000    0.970563

----------------------------
CARTESIAN COORDINATES (A.U.)
----------------------------
  NO LB      ZA    FRAG     MASS         X           Y           Z
   0 O     8.0000    0    15.999    0.000000    0.000000    0.001046
   1 H     1.0000    0     1.008    0.000000    0.000000    1.834098

--------------------------------
INTERNAL COORDINATES (ANGSTROEM)
--------------------------------
 O      0   0   0     0.000000000000     0.00000000     0.00000000
 H      1   0   0     0.970009475428     0.00000000     0.00000000

---------------------------
INTERNAL COORDINATES (A.U.)
---------------------------
 O      0   0   0     0.000000000000     0.00000000     0.00000000
 H      1   0   0     1.833052255868     0.00000000     0.00000000

---------------------
BASIS SET INFORMATION
---------------------
There are 2 groups of distinct atoms

 Group   1 Type O   : 19s6p2d contracted to 5s5p2d pattern {88111/21111/11}
 Group   2 Type H   : 5s2p contracted to 3s2p pattern {311/11}

Atom   0O    basis set group =>   1
Atom   1H    basis set group =>   2
---------------------------------
AUXILIARY/C BASIS SET INFORMATION
---------------------------------
There are 2 groups of distinct atoms

 Group   1 Type O   : 8s6p5d3f1g contracted to 8s6p5d3f1g pattern {11111111/111111/11111/111/1}
 Group   2 Type H   : 4s3p2d1f contracted to 4s3p2d1f pattern {1111/111/11/1}

Atom   0O    basis set group =>   1
Atom   1H    basis set group =>   2
--------------
CABS BASIS SET
--------------
There are 2 groups of distinct atoms

 Group   1 Type O   : 15s10p6d3f1g contracted to 15s10p6d3f1g pattern {111111111111111/1111111111/111111/111/1}
 Group   2 Type H   : 8s5p2d contracted to 8s5p2d pattern {11111111/11111/11}

Atom   0O    basis set group =>   1
Atom   1H    basis set group =>   2


           ************************************************************
           *        Program running with 8 parallel MPI-processes     *
           *              working on a common directory               *
           ************************************************************
------------------------------------------------------------------------------
                             ORCA STARTUP CALCULATIONS
------------------------------------------------------------------------------
------------------------------------------------------------------------------
                   ___                                                        
                  /   \      - P O W E R E D   B Y -                         
                 /     \                                                     
                 |  |  |   _    _      __       _____    __    __             
                 |  |  |  | |  | |    /  \     |  _  \  |  |  /  |          
                  \  \/   | |  | |   /    \    | | | |  |  | /  /          
                 / \  \   | |__| |  /  /\  \   | |_| |  |  |/  /          
                |  |  |   |  __  | /  /__\  \  |    /   |      \           
                |  |  |   | |  | | |   __   |  |    \   |  |\   \          
                \     /   | |  | | |  |  |  |  | |\  \  |  | \   \       
                 \___/    |_|  |_| |__|  |__|  |_| \__\ |__|  \__/        
                                                                              
                      - O R C A' S   B I G   F R I E N D -                    
                                      &                                       
                       - I N T E G R A L  F E E D E R -                       
                                                                              
 v1 FN, 2020, v2 2021, v3 2022-2024                                           
------------------------------------------------------------------------------


----------------------
SHARK INTEGRAL PACKAGE
----------------------

Number of atoms                             ...      2
Number of basis functions                   ...     45
Number of shells                            ...     23
Maximum angular momentum                    ...      2
Integral batch strategy                     ... SHARK/LIBINT Hybrid
RI-J (if used) integral strategy            ... SPLIT-RIJ (Revised 2003 algorithm where possible)
Printlevel                                  ...      1
Contraction scheme used                     ... PARTIAL GENERAL contraction
Prescreening option                         ... SCHWARTZ
   Thresh                                   ... 1.000e-10
   Tcut                                     ... 1.000e-11
   Tpresel                                  ... 1.000e-11 
Coulomb Range Separation                    ... NOT USED
Exchange Range Separation                   ... NOT USED
Multipole approximations                    ... NOT USED
Finite Nucleus Model                        ... NOT USED
CABS basis                                  ... AVAILABLE
   # of basis functions in CABS             ...    138
   # of shells in CABS                      ...     50
   Maximum angular momentum in CABS         ...      4
F12 Gamma exponent                          ...  0.900000
F12-Geminal                                 ...  6 primitives
l =0 ng=6 ofs=0
   a( 0) =     0.220850853  d( 0)=    -0.314424804 
   a( 1) =     1.004019154  d( 1)=    -0.303695753 
   a( 2) =     3.621217265  d( 2)=    -0.168069685 
   a( 3) =    12.162483048  d( 3)=    -0.098115813 
   a( 4) =    45.855331575  d( 4)=    -0.060246641 
   a( 5) =   254.234600970  d( 5)=    -0.037263542 
Auxiliary Coulomb fitting basis             ... NOT available
Auxiliary J/K fitting basis                 ... NOT available
Auxiliary Correlation fitting basis         ... AVAILABLE
   # of basis functions in Aux-C            ...    111
   # of shells in Aux-C                     ...     33
   Maximum angular momentum in Aux-C        ...      4
Auxiliary 'external' fitting basis          ... NOT available

Checking pre-screening integrals            ... done (  0.0 sec) Dimension = 23
Save PGC pre-screening integrals            ... done (  0.0 sec) Dimension = 23
Calculate PGC overlap integrals             ... done (  0.0 sec) Dimension = 17
Calculating pre-screening integrals (ORCA)  ... done (  0.0 sec) Dimension = 17
Shell pair information
Shell pair cut-off parameter TPreSel        ...   1.0e-11
Total number of shell pairs                 ...       276
Shell pairs after pre-screening             ...       276
Total number of primitive shell pairs       ...       355
Primitive shell pairs kept                  ...       348
          la=0 lb=0:    105 shell pairs
          la=1 lb=0:     98 shell pairs
          la=1 lb=1:     28 shell pairs
          la=2 lb=0:     28 shell pairs
          la=2 lb=1:     14 shell pairs
          la=2 lb=2:      3 shell pairs

Checking whether 4 symmetric matrices of dimension 45 fit in memory
:Max Core in MB      =   6000.00
 MB in use           =      4.79
 MB left             =   5995.21
 MB needed           =      0.03
 Data fit in memory  = YES
Calculating RI/C V-Matrix + Cholesky decomp.... done (  0.0 sec)
Calculating Nuclear repulsion               ... done (  0.0 sec) ENN=      4.364305477048 Eh

Diagonalization of the overlap matrix:
Smallest eigenvalue                        ... 3.206e-03
Time for diagonalization                   ...    0.000 sec
Threshold for overlap eigenvalues          ... 1.000e-07
Number of eigenvalues below threshold      ... 0
Time for construction of square roots      ...    0.000 sec
Total time needed                          ...    0.002 sec

-------------------
DFT GRID GENERATION
-------------------

General Integration Accuracy     IntAcc      ... 4.388
Radial Grid Type                 RadialGrid  ... OptM3 with GC (2021)
Angular Grid (max. ang.)         AngularGrid ... 4 (Lebedev-302)
Angular grid pruning method      GridPruning ... 4 (adaptive)
Weight generation scheme         WeightScheme... mBecke (2022)
Basis function cutoff            BFCut       ... 1.0000e-10
Integration weight cutoff        WCut        ... 1.0000e-14
Partially contracted basis set               ... off
Rotationally invariant grid construction     ... off
Angular grids for H and He will be reduced by one unit
Diffuse basis detected: some atoms will have their outermost
                        angular grid increased by 1.

Total number of grid points                  ...     9777
Total number of batches                      ...      154
Average number of points per batch           ...       63
Average number of grid points per atom       ...     4888

---------------------
SHARK GRID GENERATION
---------------------

General Integration Accuracy     IntAcc      ... 4.388
Radial Grid Type                 RadialGrid  ... OptM3 with GC (2021)
Angular Grid (max. ang.)         AngularGrid ... 4 (Lebedev-302)
Angular grid pruning method      GridPruning ... 4 (adaptive)
Weight generation scheme         WeightScheme... mBecke (2022)
Basis function cutoff            BFCut       ... 1.0000e-10
Integration weight cutoff        WCut        ... 1.0000e-14
Partially contracted basis set               ... off
Rotationally invariant grid construction     ... off
Angular grids for H and He will be reduced by one unit
Diffuse basis detected: some atoms will have their outermost
                        angular grid increased by 1.
Steep s-basis detected: some atoms will have their radial
                        grid points doubled.

Total number of grid points                  ...    16337
Total number of batches                      ...      256
Average number of points per batch           ...       63
Average number of grid points per atom       ...     8168
Grids setup in   0.1 sec
Initializing property integral containers    ... done (  0.0 sec)

SHARK setup successfully completed in   0.3 seconds

Maximum memory used throughout the entire STARTUP-calculation: 20.9 MB


           ************************************************************
           *        Program running with 8 parallel MPI-processes     *
           *              working on a common directory               *
           ************************************************************
-------------------------------------------------------------------------------
                                 ORCA GUESS
                   Start orbitals & Density for SCF / CASSCF
-------------------------------------------------------------------------------

------------
SCF SETTINGS
------------
Hamiltonian:
 Ab initio Hamiltonian  Method          .... Hartree-Fock(GTOs)


General Settings:
 Integral files         IntName         .... sp
 Hartree-Fock type      HFTyp           .... UHF
 Total Charge           Charge          ....    0
 Multiplicity           Mult            ....    2
 Number of Electrons    NEL             ....    9
 Basis Dimension        Dim             ....   39
 Nuclear Repulsion      ENuc            ....      4.3643054770 Eh

Convergence Acceleration:
 AO-DIIS                CNVDIIS         .... on
   Start iteration      DIISMaxIt       ....    12
   Startup error        DIISStart       ....  0.200000
   # of expansion vecs  DIISMaxEq       ....     5
   Bias factor          DIISBfac        ....   1.050
   Max. coefficient     DIISMaxC        ....  10.000
 MO-DIIS                CNVKDIIS        .... off
 Trust-Rad. Augm. Hess. CNVTRAH         .... auto
   Auto Start mean grad. ratio tolernc. ....  1.125000
   Auto Start start iteration           ....    50
   Auto Start num. interpolation iter.  ....    10
   Max. Number of Micro iterations      ....    24
   Max. Number of Macro iterations      .... Maxiter - #DIIS iter
   Number of Davidson start vectors     ....     2
   Converg. threshold    (grad. norm)   ....   5.000e-05
   Grad. Scal. Fac. for Micro threshold ....   0.100
   Minimum threshold for Micro iter.    ....   1.000e-02
   NR start threshold (gradient norm)   ....   1.000e-04
   Initial trust radius                 ....   0.400
   Minimum AH scaling param. (alpha)    ....   1.000
   Maximum AH scaling param. (alpha)    .... 1000.000
   Quad. conv. algorithm                .... NR
   White noise on init. David. guess    .... on
   Maximum white noise                  ....   0.010
   Pseudo random numbers                .... off
   Inactive MOs                         .... canonical
   Orbital update algorithm             .... Taylor
   Preconditioner                       .... Diag
   Full preconditioner red. dimension   ....   250
 SOSCF                 CNVSOSCF           .... on
   Start iteration     SOSCFMaxIt         ....   150
   Startup grad/error  SOSCFStart         ....  0.003300
   Hessian update      SOSCFHessUp        .... L-BFGS
   Autom. constraints  SOSCFAutoConstrain .... off
 Level Shifting         CNVShift        .... on
   Level shift para.    LevelShift      ....    0.2500
   Turn off err/grad.   ShiftErr        ....    0.0010
 Zerner damping         CNVZerner       .... off
 Static damping         CNVDamp         .... on
   Fraction old density DampFac         ....    0.7000
   Max. Damping (<1)    DampMax         ....    0.9800
   Min. Damping (>=0)   DampMin         ....    0.0000
   Turn off err/grad.   DampErr         ....    0.1000

SCF Procedure:
 Maximum # iterations   MaxIter         ....   125
 SCF integral mode      SCFMode         .... Direct
   Integral package                     .... SHARK and LIBINT hybrid scheme
 Reset frequency        DirectResetFreq ....    20
 Integral Threshold     Thresh          ....  1.000e-10 Eh
 Primitive CutOff       TCut            ....  1.000e-11 Eh

Convergence Tolerance:
 Convergence Check Mode ConvCheckMode   .... Total+1el-Energy
 Convergence forced     ConvForced      .... 1
 Energy Change          TolE            ....  1.000e-06 Eh
 1-El. energy change                    ....  1.000e-03 Eh
 Orbital Gradient       TolG            ....  5.000e-05
 Orbital Rotation angle TolX            ....  5.000e-05
 DIIS Error             TolErr          ....  1.000e-06

------------------------------
INITIAL GUESS: MODEL POTENTIAL
------------------------------
Loading Hartree-Fock densities                     ... done
Calculating cut-offs                               ... done
Initializing the effective Hamiltonian             ... done
Setting up the integral package (SHARK)            ... done
Starting the Coulomb interaction                   ... done (   0.0 sec)
Making the grid                                    ... done (   0.0 sec)
Mapping shells                                     ... done
Starting the XC term evaluation                    ... done (   0.0 sec)
Transforming the Hamiltonian                       ... done (   0.0 sec)
Diagonalizing the Hamiltonian                      ... done (   0.0 sec)
Back transforming the eigenvectors                 ... done (   0.0 sec)
Now organizing SCF variables                       ... done
                      ------------------
                      INITIAL GUESS DONE (   0.0 sec)
                      ------------------
             **** ENERGY FILE WAS UPDATED (sp.en.tmp) ****
Finished Guess after   2.6 sec
Maximum memory used throughout the entire GUESS-calculation: 5.7 MB


           ************************************************************
           *        Program running with 8 parallel MPI-processes     *
           *              working on a common directory               *
           ************************************************************

-------------------------------------------------------------------------------------------
                                      ORCA LEAN-SCF
                              memory conserving SCF solver
-------------------------------------------------------------------------------------------

----------------------------------------D-I-I-S--------------------------------------------
Iteration    Energy (Eh)           Delta-E    RMSDP     MaxDP     DIISErr   Damp  Time(sec)
-------------------------------------------------------------------------------------------
               ***  Starting incremental Fock matrix formation  ***
    1    -75.3889647128436025     0.00e+00  2.41e-03  9.00e-03  1.20e-01  0.700   0.0
    2    -75.3986513344628264    -9.69e-03  1.83e-03  6.67e-03  8.13e-02  0.700   0.0
                               ***Turning on AO-DIIS***
    3    -75.4048277647786591    -6.18e-03  1.23e-03  5.21e-03  5.73e-02  0.700   0.0
    4    -75.4090025033479066    -4.17e-03  3.22e-03  1.27e-02  4.04e-02  0.000   0.0
    5    -75.4193817560456807    -1.04e-02  6.17e-04  2.80e-03  7.50e-03  0.000   0.0
                              *** Initializing SOSCF ***
---------------------------------------S-O-S-C-F--------------------------------------
Iteration    Energy (Eh)           Delta-E    RMSDP     MaxDP     MaxGrad    Time(sec)
--------------------------------------------------------------------------------------
    6    -75.4195586449030628    -1.77e-04  4.21e-04  1.64e-03  3.21e-03     0.0
               *** Restarting incremental Fock matrix formation ***
    7    -75.4196215767297673    -6.29e-05  1.86e-04  6.50e-04  1.03e-03     0.0
    8    -75.4196356324994355    -1.41e-05  3.41e-04  1.20e-03  6.17e-04     0.0
    9    -75.4196458883482279    -1.03e-05  3.80e-05  1.44e-04  3.07e-04     0.0
   10    -75.4196463388120861    -4.50e-07  2.45e-05  9.84e-05  1.30e-04     0.0
                 **** Energy Check signals convergence ****

               *****************************************************
               *                     SUCCESS                       *
               *           SCF CONVERGED AFTER  10 CYCLES          *
               *****************************************************

             **** ENERGY FILE WAS UPDATED (sp.en.tmp) ****

----------------
TOTAL SCF ENERGY
----------------

Total Energy       :        -75.41964647260001 Eh           -2052.27292 eV

Components:
Nuclear Repulsion  :          4.36430547704844 Eh             118.75879 eV
Electronic Energy  :        -79.78395194964844 Eh           -2171.03171 eV
One Electron Energy:       -112.64953490396030 Eh           -3065.34968 eV
Two Electron Energy:         32.86558295431186 Eh             894.31798 eV

Virial components:
Potential Energy   :       -150.77962129989561 Eh           -4102.92208 eV
Kinetic Energy     :         75.35997482729559 Eh            2050.64917 eV
Virial Ratio       :          2.00079182146015

---------------
SCF CONVERGENCE
---------------

  Last Energy change         ...    4.5046e-07  Tolerance :   1.0000e-06
  Last MAX-Density change    ...    9.8424e-05  Tolerance :   1.0000e-05
  Last RMS-Density change    ...    2.4481e-05  Tolerance :   1.0000e-06
  Last DIIS Error            ...    3.2126e-03  Tolerance :   1.0000e-06
  Last Orbital Gradient      ...    1.2976e-04  Tolerance :   5.0000e-05
  Last Orbital Rotation      ...    1.8642e-04  Tolerance :   5.0000e-05


----------------------
UHF SPIN CONTAMINATION
----------------------

Expectation value of <S**2>     :     0.756647
Ideal value S*(S+1) for S=0.5   :     0.750000
Deviation                       :     0.006647

----------------
ORBITAL ENERGIES
----------------
                 SPIN UP ORBITALS
  NO   OCC          E(Eh)            E(eV) 
   0   1.0000     -20.641074      -561.6722 
   1   1.0000      -1.390555       -37.8389 
   2   1.0000      -0.683725       -18.6051 
   3   1.0000      -0.657819       -17.9002 
   4   1.0000      -0.561563       -15.2809 
   5   0.0000       0.121833         3.3152 
   6   0.0000       0.156299         4.2531 
   7   0.0000       0.166658         4.5350 
   8   0.0000       0.170068         4.6278 
   9   0.0000       0.262970         7.1558 
  10   0.0000       0.646615        17.5953 
  11   0.0000       0.664392        18.0790 
  12   0.0000       0.680226        18.5099 
  13   0.0000       0.775883        21.1128 
  14   0.0000       0.890623        24.2351 
  15   0.0000       0.934870        25.4391 

                 SPIN DOWN ORBITALS
  NO   OCC          E(Eh)            E(eV) 
   0   1.0000     -20.601378      -560.5920 
   1   1.0000      -1.231785       -33.5186 
   2   1.0000      -0.639060       -17.3897 
   3   1.0000      -0.511410       -13.9162 
   4   0.0000       0.062225         1.6932 
   5   0.0000       0.127571         3.4714 
   6   0.0000       0.169327         4.6076 
   7   0.0000       0.174765         4.7556 
   8   0.0000       0.227824         6.1994 
   9   0.0000       0.266976         7.2648 
  10   0.0000       0.654854        17.8195 
  11   0.0000       0.678271        18.4567 
  12   0.0000       0.685724        18.6595 
  13   0.0000       0.785292        21.3689 
  14   0.0000       0.950387        25.8613 
*Only the first 10 virtual orbitals were printed.

                    ********************************
                    * MULLIKEN POPULATION ANALYSIS *
                    ********************************

--------------------------------------------
MULLIKEN ATOMIC CHARGES AND SPIN POPULATIONS
--------------------------------------------
   0 O :   -0.256743    1.059437
   1 H :    0.256743   -0.059437
Sum of atomic charges         :   -0.0000000
Sum of atomic spin populations:    1.0000000

-----------------------------------------------------
MULLIKEN REDUCED ORBITAL CHARGES AND SPIN POPULATIONS
-----------------------------------------------------
CHARGE
  0 O s       :     3.917116  s :     3.917116
      pz      :     1.375604  p :     4.326779
      px      :     1.857928
      py      :     1.093248
      dz2     :     0.009111  d :     0.012848
      dxz     :     0.001729
      dyz     :     0.001073
      dx2y2   :     0.000576
      dxy     :     0.000359

  1 H s       :     0.680730  s :     0.680730
      pz      :     0.016504  p :     0.062526
      px      :     0.032656
      py      :     0.013367


SPIN
  0 O s       :     0.025285  s :     0.025285
      pz      :     0.040341  p :     1.032365
      px      :     0.109753
      py      :     0.882271
      dz2     :     0.000913  d :     0.001787
      dxz     :     0.000215
      dyz     :     0.000890
      dx2y2   :    -0.000142
      dxy     :    -0.000089

  1 H s       :    -0.063865  s :    -0.063865
      pz      :    -0.002443  p :     0.004428
      px      :    -0.002280
      py      :     0.009151



                     *******************************
                     * LOEWDIN POPULATION ANALYSIS *
                     *******************************

-------------------------------------------
LOEWDIN ATOMIC CHARGES AND SPIN POPULATIONS
-------------------------------------------
   0 O :    0.084393    0.981762
   1 H :   -0.084393    0.018238

----------------------------------------------------
LOEWDIN REDUCED ORBITAL CHARGES AND SPIN POPULATIONS
----------------------------------------------------
CHARGE
  0 O s       :     3.572283  s :     3.572283
      pz      :     1.495529  p :     4.321413
      px      :     1.777557
      py      :     1.048328
      dz2     :     0.020372  d :     0.021911
      dxz     :     0.000371
      dyz     :     0.000233
      dx2y2   :     0.000576
      dxy     :     0.000359

  1 H s       :     0.696707  s :     0.696707
      pz      :     0.214175  p :     0.387686
      px      :     0.114384
      py      :     0.059127


SPIN
  0 O s       :     0.012659  s :     0.012659
      pz      :     0.016735  p :     0.970379
      px      :     0.106934
      py      :     0.846710
      dz2     :    -0.001294  d :    -0.001276
      dxz     :     0.000053
      dyz     :     0.000194
      dx2y2   :    -0.000142
      dxy     :    -0.000089

  1 H s       :    -0.032574  s :    -0.032574
      pz      :     0.004704  p :     0.050812
      px      :     0.000700
      py      :     0.045407



                      *****************************
                      * MAYER POPULATION ANALYSIS *
                      *****************************

  NA   - Mulliken gross atomic population
  ZA   - Total nuclear charge
  QA   - Mulliken gross atomic charge
  VA   - Mayer's total valence
  BVA  - Mayer's bonded valence
  FA   - Mayer's free valence

  ATOM       NA         ZA         QA         VA         BVA        FA
  0 O      8.2567     8.0000    -0.2567     1.9384     0.9472     0.9912
  1 H      0.7433     1.0000     0.2567     0.9515     0.9472     0.0043

  Mayer bond orders larger than 0.100000
B(  0-O ,  1-H ) :   0.9472 

-------
TIMINGS
-------

Total SCF time: 0 days 0 hours 0 min 2 sec 

Total time                  ....       2.726 sec
Sum of individual times     ....       2.697 sec  ( 99.0%)

SCF preparation             ....       2.476 sec  ( 90.8%)
Fock matrix formation       ....       0.058 sec  (  2.1%)
  Startup                   ....       0.005 sec  (  9.2% of F)
  Coulomb+Exchange Fock     ....       0.043 sec  ( 73.6% of F)
Diagonalization             ....       0.000 sec  (  0.0%)
Density matrix formation    ....       0.027 sec  (  1.0%)
Total Energy calculation    ....       0.016 sec  (  0.6%)
Population analysis         ....       0.009 sec  (  0.3%)
Orbital Transformation      ....       0.014 sec  (  0.5%)
Orbital Orthonormalization  ....       0.000 sec  (  0.0%)
DIIS solution               ....       0.058 sec  (  2.1%)
SOSCF solution              ....       0.039 sec  (  1.4%)
Finished LeanSCF after   2.7 sec

Maximum memory used throughout the entire LEANSCF-calculation: 7.6 MB


           ************************************************************
           *        Program running with 8 parallel MPI-processes     *
           *              working on a common directory               *
           ************************************************************

------------------------------------------------------------------------------
                         ORCA PROPERTY INTEGRAL CALCULATIONS
------------------------------------------------------------------------------

GBWName                                   ... sp.gbw
Number of atoms                           ...      2
Number of basis functions                 ...     45
Max core memory                           ...   6000 MB

Dipole integrals                          ... YES
Quadrupole integrals                      ...  NO
Linear momentum integrals                 ... YES
Angular momentum integrals                ... YES
Higher moments length integrals           ...  NO
Higher moments velocity integrals         ...  NO
Kinetic energy integrals                  ...  NO
GIAO right hand sides                     ...  NO
GIAO dipole derivative integrals          ...  NO
SOC integrals                             ...  NO
EPR diamagnetic integrals (GIAO)          ...  NO
EPR gauge integrals                       ...  NO
Field gradient integrals                  ...  NO (   0 nuclei)
Spin-dipole/Fermi contact integrals       ...  NO (   0 nuclei)
Contact density integrals                 ...  NO (   0 nuclei)
Nucleus-orbit integrals                   ...  NO (   0 nuclei)
Geometric perturbations                   ...  NO (   2 nuclei)

Choice of electric origin   ... Center of mass
Position of electric origin ... (  0.0000,  0.0000,  0.1097) 
Choice of magnetic origin   ... GIAO
Position of magnetic origin ... (  0.0000,  0.0000,  0.0000) 

Calculating integrals                     ... Electric Dipole (Length)     done (  0.0 sec)
Calculating integrals                     ... Linear Momentum              done (  0.0 sec)
Calculating integrals                     ... Angular Momentum  (ElOri)    done (  0.0 sec)

Property integrals calculated in   0.0 sec

Maximum memory used throughout the entire PROPINT-calculation: 5.8 MB


           ************************************************************
           *        Program running with 8 parallel MPI-processes     *
           *              working on a common directory               *
           ************************************************************


--------------------------------------------------------------------------------
                             ORCA-MATRIX DRIVEN CI
--------------------------------------------------------------------------------

--------------------------------
AUTOMATIC CHOICE OF INCORE LEVEL
--------------------------------

Memory available                           ...   3000.00 MB
Memory needed for S+T                      ...      0.26 MB
Memory needed for J+K                      ...      0.53 MB
Memory needed for DIIS                     ...      3.70 MB
Memory needed for 3-ext                    ...      1.20 MB
Memory needed for 4-ext                    ...      5.25 MB
Memory needed for triples                  ...      1.50 MB
 -> Final InCoreLevel    ... 5
 -> check shows that triples correction can be computed


Wavefunction type
-----------------
Correlation treatment                      ...      CCSD     
Single excitations                         ... ON
Orbital optimization                       ... OFF
Calculation of Z vector                    ... OFF
Calculation of Brueckner orbitals          ... OFF
Perturbative triple excitations            ... ON
Calculation of F12 correction              ... ON
   Using RI for F12 correction             ... ON
Frozen core treatment                      ... chemical core (2 el)
Reference Wavefunction                     ... UHF
  Alpha-MOs occ    :     1 ...    4 (  4 MO's/  4 electrons)
  Beta-MOs occ     :     1 ...    3 (  3 MO's/  3 electrons)
  Alpha-MOs virt   :     5 ...   38 ( 34 MO's              )
  Beta-MOs virt    :     4 ...   38 ( 35 MO's              )
Number of AO's                             ...     39
Number of electrons                        ...      9
Number of correlated electrons             ...      7

Algorithmic settings
--------------------
Integral transformation                    ... Separate K and J transformations
K(C) Formation                             ... AO-EXCHANGE STORED
Maximum number of iterations               ...        50
Convergence tolerance (max. residuum)      ... 2.500e-05
Level shift for amplitude update           ... 2.000e-01
Maximum number of DIIS vectors             ...         7
DIIS turned on at iteration                ...         0
Damping before turning on DIIS             ...     0.500
Damping after turning on DIIS              ...     0.000
Pair specific amplitude update             ... OFF
Natural orbital iterations                 ... OFF
Perturbative natural orbital generation    ... OFF
Printlevel                                 ... 2

Memory handling:
----------------
Maximum memory for working arrays          ...   3000 MB
Data storage in matrix containers          ... UNCOMPRESSED
Data type for integral storage             ... DOUBLE
In-Core Storage of quantities:
   Amplitudes+Sigma Vector      ... YES
   J+K operators                ... YES
   DIIS vectors                 ... YES
   3-external integrals         ... YES
   4-external integrals         ... YES


Initializing the integral package          ... done
Warning: reference  - re-canonicalizations have been set to INT 1 VIRT 1
Fock densities were made 
Making Fock matrix and reference energy:

--------------------------
UNRESTRICTED FOCK OPERATOR
--------------------------

Recanonicalizing the internal orbitals
Recanonicalizing the virtual orbitals
Storing new orbitals
Time needed for Fock operator              ...            0.012 sec
Reference energy                           ...    -75.419646473

-------------------------
SHARK HALF TRANSFORMATION
-------------------------

Number of basis functions                ...     39
Number of operators                      ...      2
   Operator  0:    1-   4

   Operator  1:    1-   3

Integral generator used                  ... SHARK
Contraction scheme used                  ... SEGMENTED CONTRACTION
MaxCore in resort                        ...   6000 MB

Half transformed integrals for op=   0   ... sp.SHARK_MNPQ0.tmp
Resorted half transformed integrals      ... sp._PQMN_0.tmp
Half transformed integrals for op=   1   ... sp.SHARK_MNPQ1.tmp
Resorted half transformed integrals      ... sp._PQMN_1.tmp
Starting integral generation + half trafo... 
Half trafo (segmented) done. Total time =  0.0 sec. integrals=  0.0 sec trafo=  0.0 sec
Starting integral resorting              ... done (  0.0 sec)

SHARK half integral transformation done. Total time =  0.0 sec.

----------------------------------
J-TRAFO SECOND HALF TRANSFORMATION
----------------------------------

Generate (ij|kl)                        ... NO
Generate (ij|ka)                        ... YES
Generate (ij|ab)                        ... YES
Generate (ia|bc)                        ... NO
Generate (ab|cd)                        ... NO
Generate (pq|rs)                        ... NO

Number of operators                     ... 2
   Operator 0                           ...    1-   4 to    5-  38
   PQMN-Container name                  ... sp._PQMN_0.tmp
   IJKA-Container name    op=0,0        ... sp._IJKA_0.tmp
   IJAB-Container name    op=0,0        ... sp._IJAB_0.tmp
   IJKA-Container name    op=0,1        ... sp._IJKA_2.tmp
   IJAB-Container name    op=0,1        ... sp._IJAB_2.tmp
   Operator 1                           ...    1-   3 to    4-  38
   PQMN-Container name                  ... sp._PQMN_1.tmp
   IJKA-Container name    op=1,0        ... sp._IJKA_3.tmp
   IJAB-Container name    op=1,0        ... sp._IJAB_3.tmp
   IJKA-Container name    op=1,1        ... sp._IJKA_1.tmp
   IJAB-Container name    op=1,1        ... sp._IJAB_1.tmp

Starting integral transformations       ... done
Completed Coulomb integral formation in   0.0 sec


-------------------------
SHARK HALF TRANSFORMATION (Exchange order)
-------------------------

Number of basis functions                   ...     39
Number of operators                         ...      2
   Operator  0:    1-   4 (p-index in (p*|q*))
   Operator  0:    1-  38 (q-index in (p*|q*)
   Operator  1:    1-   3 (p-index in (p*|q*))
   Operator  1:    1-  38 (q-index in (p*|q*)
Integral generator used                     ... SHARK
Contraction scheme used                     ... SEGMENTED CONTRACTION
MaxCore in resort                           ...   6000 MB

Half transformed integrals for op=   0      ... sp.SHARK_MNPQ0.tmp
Resorted half transformed integrals         ... sp._PMQN_0.tmp
Half transformed integrals for op=   1      ... sp.SHARK_MNPQ1.tmp
Resorted half transformed integrals         ... sp._PMQN_1.tmp
Half transformed integrals for op=0/1       ... sp.SHARK_MNPQ01.tmp
Resorted half transformed integrals         ... sp._PMQN_2.tmp
Half transformed integrals for op=1/0       ... sp.SHARK_MNPQ10.tmp
Resorted half transformed integrals         ... sp._PMQN_3.tmp

Half trafo (segmented) done. Total time =  0.0 sec. integrals=  0.0 sec trafo=  0.0 sec

----------------------
SHARK INTEGRAL SORTING (Exchange)
----------------------

Input container                             ... sp.SHARK_MNPQ0.tmp
Output container                            ... sp._PMQN_0.tmp
Range of AO-indices                         ...    0 -   38
Range of bra indices i                      ...    1 -    4
Range of ket indices j                      ...    1 -   38
Symmetric i,j range                         ... NO
Number of (i,j) pairs generated             ...  152
Max Core memory in MB                       ...   6000

Available core memory in MB                 ...   5970.76
MB needed for one item                      ...      0.01
Fixed MB needed                             ...      0.00
Number of items                             ...        19
Number of batches                           ...         1
Items treated per batch                     ...        19
Batch   0                                   ...      0-    18 (    19)
   => Closing output file and leaving

----------------------
SHARK INTEGRAL SORTING (Exchange)
----------------------

Input container                             ... sp.SHARK_MNPQ1.tmp
Output container                            ... sp._PMQN_1.tmp
Range of AO-indices                         ...    0 -   38
Range of bra indices i                      ...    1 -    3
Range of ket indices j                      ...    1 -   38
Symmetric i,j range                         ... NO
Number of (i,j) pairs generated             ...  114
Max Core memory in MB                       ...   6000

Available core memory in MB                 ...   5970.78
MB needed for one item                      ...      0.01
Fixed MB needed                             ...      0.00
Number of items                             ...        15
Number of batches                           ...         1
Items treated per batch                     ...        15
Batch   0                                   ...      0-    14 (    15)
   => Closing output file and leaving

----------------------
SHARK INTEGRAL SORTING (Exchange)
----------------------

Input container                             ... sp.SHARK_MNPQ01.tmp
Output container                            ... sp._PMQN_2.tmp
Range of AO-indices                         ...    0 -   38
Range of bra indices i                      ...    1 -    4
Range of ket indices j                      ...    1 -   38
Symmetric i,j range                         ... NO
Number of (i,j) pairs generated             ...  152
Max Core memory in MB                       ...   6000

Available core memory in MB                 ...   5970.79
MB needed for one item                      ...      0.01
Fixed MB needed                             ...      0.00
Number of items                             ...        19
Number of batches                           ...         1
Items treated per batch                     ...        19
Batch   0                                   ...      0-    18 (    19)
   => Closing output file and leaving

----------------------
SHARK INTEGRAL SORTING (Exchange)
----------------------

Input container                             ... sp.SHARK_MNPQ10.tmp
Output container                            ... sp._PMQN_3.tmp
Range of AO-indices                         ...    0 -   38
Range of bra indices i                      ...    1 -    3
Range of ket indices j                      ...    1 -   38
Symmetric i,j range                         ... NO
Number of (i,j) pairs generated             ...  114
Max Core memory in MB                       ...   6000

Available core memory in MB                 ...   5970.81
MB needed for one item                      ...      0.01
Fixed MB needed                             ...      0.00
Number of items                             ...        15
Number of batches                           ...         1
Items treated per batch                     ...        15
Batch   0                                   ...      0-    14 (    15)
   => Closing output file and leaving
done (  0.0 sec)

SHARK half integral transformation done. Total time =  0.1 sec.

----------------------------------
K-TRAFO SECOND HALF TRANSFORMATION
----------------------------------

Generate (ik|jl)                        ... YES
Generate (ik|ja)                        ... YES
Generate (ia|jb)                        ... YES
Generate (ib|ac)                        ... YES
Generate (ac|bd)                        ... NO
Generate (pr|qs)                        ... NO

Number of operators                     ... 2
   Operator 0                           ...    1-   4 to    5-  38
   Operator 1                           ...    1-   3 to    4-  38

Starting integral transformations       ... done
Completed Exchange integral formation in   0.0 sec


------------------------------
Initializing F12 data (SHARK)
------------------------------

Mapping basis set                  ... done
Dimension of the orbital basis set  = 39
Dimension of the CABS basis set     = 138
Dimension of the AUX basis set      = 111
Threshold for CABS orthogonalization = 1.000e-08
Test shows that OBS-bases are identical for ORCA and SHARK (good)
Test shows that CABS-bases are identical for ORCA and SHARK (good)
Will use an exponential correlation factor -Exp(-gamma r12)/gamma (gamma= 0.900) fit to 6 Gaussians 
Correlation factor:   
  NGauss  :          6      
  Gaussian expansion: 
    a( 0)=    0.1948458958396247  d( 0)=   -0.3837757050057319 
    a( 1)=    0.9387038387678155  d( 1)=   -0.3334018174260626 
    a( 2)=    3.4610351909878712  d( 2)=   -0.1753946777841836 
    a( 3)=   11.7049812253407470  d( 3)=   -0.1006409546144490 
    a( 4)=   44.2276119656826054  d( 4)=   -0.0614475916279048 
    a( 5)=  245.3721739425115800  d( 5)=   -0.0379425509353721 
Calculating one-electron matrices                       ... (SHARK)done (      0.0 sec)
Calculating pre-screening matrices:                     ... 
     (LIBINT-0)       .... 1/r12 done          (      0.1 sec)
     (LIBINT-1)       .... f12/r12 done        (      0.0 sec)
     (LIBINT-2)       .... f12 done            (      0.0 sec)
     (LIBINT-3)       .... f12^2 done          (      0.0 sec)
     (LIBINT-4)       .... [f12,[T1,f12]] done (      0.0 sec)
                                                        ... done (      0.2 sec)
Making CABS spaces                                      ... done (      0.0 sec)
Calculating 2-index 2-center F12 integrals              ... 
Two index explicit correlation integrals  op=0          ...(SHARK-0) done (      0.0 sec)  Metric   done (      0.0 sec)
Two index explicit correlation integrals  op=1          ...(SHARK-1) done (      0.0 sec)  Metric   done (      0.0 sec)
Two index explicit correlation integrals  op=2          ...(SHARK-2) done (      0.0 sec)  Metric   done (      0.0 sec)
Two index explicit correlation integrals  op=3          ...(SHARK-3) done (      0.0 sec)  Metric   done (      0.0 sec)
Two index explicit correlation integrals  op=4          ...(SHARK-4) done (      0.0 sec)  Metric   done (      0.0 sec)
                                                                     done (      0.0 sec)

-----------------------
SPIN UNRESTRICTED GUESS
-----------------------

Spin-components of the MP2 energy:
EMP2(aa)=     -0.030246741
EMP2(bb)=     -0.014238592
EMP2(ab)=     -0.137788759

Initial guess performed in     0.002 sec
E(0)                                       ...    -75.419646473
E(MP2)                                     ...     -0.182274092
Initial E(tot)                             ...    -75.601920565
<T|T>                                      ...      0.042810630
Number of pairs included                   ... 21

------------------------------------------------
                  UHF COUPLED CLUSTER ITERATIONS
------------------------------------------------

Number of amplitudes to be optimized       ...        19704

Iter       E(tot)           E(Corr)          Delta-E          Residual     Time      <S|S>**1/2
  0    -75.601920576     -0.182274103     -0.000000011      0.019986308    0.04      0.000066191
                           *** Turning on DIIS ***
  1    -75.609845753     -0.190199280     -0.007925177      0.005059924    0.03      0.017363105
  2    -75.613926761     -0.194280289     -0.004081008      0.002083077    0.03      0.022967184
  3    -75.614944182     -0.195297709     -0.001017420      0.001273787    0.03      0.026567254
  4    -75.615165272     -0.195518799     -0.000221090      0.000700046    0.03      0.027942821
  5    -75.615206055     -0.195559583     -0.000040783      0.000290354    0.03      0.028341037
  6    -75.615217388     -0.195570916     -0.000011333      0.000089775    0.03      0.028357885
  7    -75.615216476     -0.195570004      0.000000912      0.000018469    0.03      0.028314693
               --- The Coupled-Cluster iterations have converged ---
--------------------
CC F12/RI CORRECTION
--------------------

Doing density matrix                                    ... done (      0.0 sec)
Calculating Coulomb operators
       .... OBS/OBS done        (      0.0 sec, SHARK-SC)
       .... CABS/OBS done       (      0.0 sec, LIBINT  )
       .... CABS/CABS done      (      0.0 sec, LIBINT  )
Calculating Exchange operators
       .... OBS/OBS done        (      0.0 sec, LIBINT  )
       .... CABS/OBS done       (      0.1 sec, LIBINT  )
       .... CABS/CABS done      (      0.1 sec, LIBINT  )
       .... exchange build done (      0.2 sec)
Completing Fock operators                               ... done (      0.0 sec)
Entering three index integral routine
Three index transformation (OBS,OBS/AUX) for  op=0      ... (SHARK ) done (      0.0 sec)
Three index transformation (OBS,CABS/AUX) for op=0      ... (LIBINT) done (      0.0 sec)
Three index transformation (OBS,OBS/AUX) for  op=1      ... (SHARK ) done (      0.0 sec)
Three index transformation (OBS,CABS/AUX) for op=1      ... (LIBINT) done (      0.0 sec)
Three index transformation (OBS,OBS/AUX) for  op=2      ... (SHARK ) done (      0.0 sec)
Three index transformation (OBS,CABS/AUX) for op=2      ... (LIBINT) done (      0.0 sec)
Three index transformation (OBS,OBS/AUX) for  op=3      ... (SHARK ) done (      0.0 sec)
Three index transformation (OBS,CABS/AUX) for op=3      ... (LIBINT) done (      0.0 sec)
Three index transformation (OBS,OBS/AUX) for  op=4      ... (SHARK ) done (      0.0 sec)
Three index transformation (OBS,CABS/AUX) for op=4      ... (LIBINT) done (      0.0 sec)
Three index transformation (OBS_F,OBS/AUX) for  op=2    ... (LIBINT) done (      0.1 sec)
Three index transformation (OBS_F,CABS/AUX) for op=2    ... (SHARK ) done (      0.0 sec)
Recalculating the K(C) operators (Opt=   AOX)           ... done (      0.0 sec)
Calculating F12 intermediates (incore)                  ... done (      0.0 sec)
     Startup integrals           ...     0.002 sec
     OBS/OBS integrals           ...     0.001 sec
     CABS/OBS integrals          ...     0.002 sec
     CABS/CABS integrals         ...     0.000 sec
     Vij intermediate            ...     0.000 sec
     Xij intermediate            ...     0.000 sec
     Bij intermediate            ...     0.005 sec
     BS-tilde ij intermediate    ...     0.000 sec
     Vbar-ij intermediate        ...     0.000 sec
     Hartree-Fock correction     ...     0.001 sec
Calculating correlation correction                      ... done (    0.001 sec)

F12 correction                   :  -0.034398029961
Hartree-Fock correction          :  -0.003154976486
Sum of the two                   :  -0.037553006447
Total time for F12 correction    :     0.702 sec
  .... cleaning up and leaving CC-F12/RI

----------------------
COUPLED CLUSTER ENERGY
----------------------

Uncorrected 0th order energy               ...    -75.419646473
F12-HF basis set correction                ...     -0.003154976
Corrected 0th order energy                 ...    -75.422801449

Uncorrected correlation energy             ...     -0.195570004
F12-correction to the correlation energy   ...     -0.034398030
Final F12 correlation energy               ...     -0.229968034

E(TOT)-before F12 corrections              ...    -75.615216476
E(TOT)-after HF correction                 ...    -75.618371453
E(TOT)-after all F12 corrections           ...    -75.652769483

Singles norm <S|S>**1/2                    ...      0.028314693 ( 0.018007747, 0.010306946)  
T1 diagnostic                              ...      0.010701948                              

------------------
LARGEST AMPLITUDES
------------------
   4a-> 15a   3b-> 14b       0.036349
   2a-> 10a   2b-> 10b       0.032271
   3a-> 14a   3b-> 14b       0.024986
   2a->  9a   2b-> 10b       0.024138
   2a-> 10a   2b->  9b       0.023936
   2a->  9a   2b->  9b       0.021902
   4a-> 15a   3b->  6b       0.021158
   4a->  7a   3b-> 14b       0.020563
   2a-> 10a   2b-> 16b       0.019861
   2a-> 16a   2b-> 10b       0.019262
   4a-> 18a   1b->  4b       0.019178
   4a-> 19a   3b-> 19b       0.018809
   4a-> 14a   3a-> 15a       0.018531
   4a-> 15a   3a-> 14a       0.018531
   4a-> 18a   3b-> 18b       0.017794
   4a-> 15a   1b-> 17b       0.017262

----------------------
UHF TRIPLES CORRECTION (Algorithm 1)
----------------------

Multiplier for the singles contribution    ...      1.000000000

SPIN-CASE Alpha-Alpha-Alpha:
10% done
20% done
30% done
40% done
50% done
60% done
70% done
80% done
90% done


SPIN-CASE Beta-Beta-Beta:
10% done
20% done
30% done
40% done
50% done
60% done
70% done
80% done
90% done


SPIN-CASE Alpha-Alpha-Beta:
10% done
20% done
30% done
40% done
50% done
60% done
70% done
80% done
90% done


SPIN-CASE Beta-Beta-Alpha:
10% done
20% done
30% done
40% done
50% done
60% done
70% done
80% done
90% done


Triples Correction (T)                     ...     -0.004672260
    alpha-alpha-alpha ... -0.000157699 (  3.4%)
    alpha-alpha-beta  ... -0.002733273 ( 58.5%)
    alpha-beta -beta  ... -0.001750954 ( 37.5%)
    beta -beta -beta  ... -0.000030334 (  0.6%)
Scaling of triples based on CCSD energies (Peterson et al. Molecular Physics 113, 1551 (2015))
E(T*) = f*E(T) where f = E(F12-CCSD)/E(CCSD) 
f = CCSD (with F12)/ CCSD (without F12)    ...      1.175886022
Scaled triples correction (T)              ...     -0.005494045

Final correlation energy (without F12)     ...     -0.200242264
Final correlation energy (with F12)        ...     -0.234640294
Final correlation energy (CCSD scaled (T)) ...     -0.235462079
F12-E(CCSD)                                ...    -75.652769483
F12-E(CCSD(T))                             ...    -75.657441743
F12-ECCSD(T) with (T) scaled through CCSD  ...    -75.658263528



        !!!!!!!!!!!!!!!!!!!!!!!!!!!!!!!!!!!!!!!!!!!!!!!!!!!!!!!!!!!!!!!!!!!!!!!!!! 
        !  Warning: Densities are linearized densities                           !
        !!!!!!!!!!!!!!!!!!!!!!!!!!!!!!!!!!!!!!!!!!!!!!!!!!!!!!!!!!!!!!!!!!!!!!!!!! 

NORM  =      1.053864141 sqrt=     1.026578853
W(HF) =      0.948888914
------------------------------------------------------------------------------
                           ORCA POPULATION ANALYSIS
------------------------------------------------------------------------------
Input electron density              ... sp.mdcip
Input spin density                  ... sp.mdcir
BaseName (.gbw .S,...)              ... sp

                    ********************************
                    * MULLIKEN POPULATION ANALYSIS *
                    ********************************

------------------------------------------
MULLIKEN ATOMIC CHARGES AND SPIN DENSITIES
------------------------------------------
   0 O :   -0.231491    1.036746
   1 H :    0.231491   -0.036746
Sum of atomic charges       :   -0.0000000
Sum of atomic spin densities:    1.0000000

---------------------------------------------------
MULLIKEN REDUCED ORBITAL CHARGES AND SPIN DENSITIES
---------------------------------------------------
CHARGE
  0 O s       :     3.912959  s :     3.912959
      pz      :     1.353872  p :     4.281152
      px      :     1.838724
      py      :     1.088557
      dz2     :     0.013047  d :     0.037379
      dxz     :     0.007413
      dyz     :     0.006034
      dx2y2   :     0.005445
      dxy     :     0.005440
  1 H s       :     0.692135  s :     0.692135
      pz      :     0.015683  p :     0.076374
      px      :     0.042011
      py      :     0.018680

SPIN
  0 O s       :     0.020769  s :     0.020769
      pz      :     0.032239  p :     1.007448
      px      :     0.108531
      py      :     0.866679
      dz2     :     0.001497  d :     0.008529
      dxz     :     0.000295
      dyz     :     0.002768
      dx2y2   :     0.001988
      dxy     :     0.001981
  1 H s       :    -0.045555  s :    -0.045555
      pz      :    -0.002016  p :     0.008809
      px      :    -0.001809
      py      :     0.012634


                     *******************************
                     * LOEWDIN POPULATION ANALYSIS *
                     *******************************

-----------------------------------------
LOEWDIN ATOMIC CHARGES AND SPIN DENSITIES
-----------------------------------------
   0 O :    0.099527    0.968731
   1 H :   -0.099527    0.031269

--------------------------------------------------
LOEWDIN REDUCED ORBITAL CHARGES AND SPIN DENSITIES
--------------------------------------------------
CHARGE
  0 O s       :     3.566783  s :     3.566783
      pz      :     1.481072  p :     4.285333
      px      :     1.760272
      py      :     1.043989
      dz2     :     0.026679  d :     0.048358
      dxz     :     0.005827
      dyz     :     0.004966
      dx2y2   :     0.005445
      dxy     :     0.005440
  1 H s       :     0.697064  s :     0.697064
      pz      :     0.216099  p :     0.402463
      px      :     0.122049
      py      :     0.064316

SPIN
  0 O s       :     0.013261  s :     0.013261
      pz      :     0.013082  p :     0.949669
      px      :     0.105173
      py      :     0.831414
      dz2     :    -0.000214  d :     0.005801
      dxz     :     0.000142
      dyz     :     0.001905
      dx2y2   :     0.001988
      dxy     :     0.001981
  1 H s       :    -0.022133  s :    -0.022133
      pz      :     0.002938  p :     0.053402
      px      :     0.001702
      py      :     0.048762


                      *****************************
                      * MAYER POPULATION ANALYSIS *
                      *****************************

  NA   - Mulliken gross atomic population
  ZA   - Total nuclear charge
  QA   - Mulliken gross atomic charge
  VA   - Mayer's total valence
  BVA  - Mayer's bonded valence
  FA   - Mayer's free valence

  ATOM       NA         ZA         QA         VA         BVA        FA
  0 O      8.2315     8.0000    -0.2315     2.2061     0.9194     1.2866
  1 H      0.7685     1.0000     0.2315     0.9890     0.9194     0.0695

  Mayer bond orders larger than 0.100000
B(  0-O ,  1-H ) :   0.9194 



--------------------------------------------------------------------------------
                                    TIMINGS
--------------------------------------------------------------------------------


Total execution time                   ...        1.669 sec

Fock Matrix Formation                  ...        0.012 sec (  0.7%)
Initial Guess                          ...        0.002 sec (  0.1%)
DIIS Solver                            ...        0.009 sec (  0.6%)
State Vector Update                    ...        0.000 sec (  0.0%)
Sigma-vector construction              ...        0.251 sec ( 15.1%)
  <D|H|D>(2-ext)                       ...        0.007 sec (  2.7% of sigma)
  <D|H|D>(4-ext)                       ...        0.086 sec ( 34.2% of sigma)
  <S|H|0>                              ...        0.006 sec (  2.5% of sigma)
  <D|H|S>(1-ext)                       ...        0.004 sec (  1.7% of sigma)
  Fock-dressing                        ...        0.052 sec ( 20.7% of sigma)
  (ik|jl)-dressing                     ...        0.022 sec (  8.6% of sigma)
  (ij|ab),(ia|jb)-dressing             ...        0.055 sec ( 22.0% of sigma)
  Pair energies                        ...        0.001 sec (  0.5% of sigma)
Total Time for computing (T)           ...        0.016 sec (  1.0% of ALL)
  I/O of integral and amplitudes       ...        0.007 sec ( 45.4% of (T))
  External N**7 contributions          ...        0.004 sec ( 25.6% of (T))
  N**6 triples energy contributions    ...        0.003 sec ( 19.5% of (T))


Maximum memory used throughout the entire MDCI-calculation: 44.9 MB

-------------------------   --------------------
FINAL SINGLE POINT ENERGY       -75.657441742947
-------------------------   --------------------



           ************************************************************
           *        Program running with 8 parallel MPI-processes     *
           *              working on a common directory               *
           ************************************************************

------------------------------------------------------------------------------
                              ORCA PROPERTY CALCULATIONS
------------------------------------------------------------------------------

GBWName                                 ... sp.gbw
Number of atoms                         ...      2
Number of basis functions               ...     45
Max core memory                         ...   6000 MB

Electric properties:
Dipole moment                           ... YES
Quadrupole moment                       ...  NO
Static polarizability (Dipole/Dipole)   ...  NO
Static polarizability (Dipole/Quad.)    ...  NO
Static polarizability (Quad./Quad.)     ...  NO
Static polarizability (Velocity)        ...  NO
Static hyperpolarizability              ...  NO

Atomic electric properties:
Dipole moment                           ...  NO
Quadrupole moment                       ...  NO
Static polarizability                   ...  NO

Choice of electric origin               ... Center of mass
Position of electric origin             ...     0.000000     0.000000     0.109690

General magnetic properties:
Magnetizability                         ...  NO

EPR properties:
g-Tensor (aka g-matrix)                 ...  NO
Zero-Field splitting spin-orbit         ...  NO
Zero-field splitting spin-spin          ...  NO
Hyperfine couplings                     ...  NO (   0 nuclei)
Quadrupole couplings                    ...  NO (   0 nuclei)
Contact density                         ...  NO (   0 nuclei)

NMR properties:
Chemical shifts                         ...  NO (   0 nuclei)
Spin-rotation constants                 ...  NO (   0 nuclei)
Spin-spin couplings                     ...  NO (   0 nuclei,    0 pairs)

Choice of magnetic origin               ... GIAO
Position of magnetic origin             ...     0.000000     0.000000     0.000000

Properties with geometric perturbations:
SCF Hessian                             ...  NO
IR spectrum                             ...  NO
VCD spectrum                            ...  NO
X-ray spectroscopy properties:
SCF XES/XAS/RIXS spectra                ...  NO

SCF SOC stabilization energy            ...  NO
Diagonal Born-Oppenheimer correction    ...  NO

-------------
DIPOLE MOMENT
-------------

Method             : SCF
Type of density    : Electron Density
Multiplicity       :   2
Irrep              :   0
Energy             :   -75.4196464726000073 Eh
Basis              : AO
                                X                 Y                 Z
Electronic contribution:     -0.000000000       0.000000000      -0.153613261
Nuclear contribution   :      0.000000000       0.000000000       0.855251935
                        -----------------------------------------
Total Dipole Moment    :     -0.000000000       0.000000000       0.701638674
                        -----------------------------------------
Magnitude (a.u.)       :      0.701638674
Magnitude (Debye)      :      1.783423777



--------------------
Rotational spectrum 
--------------------
 
Rotational constants in cm-1:             0.000000            18.893782            18.893782 
Rotational constants in MHz :             0.000000        566421.349023        566421.349023 

Dipole components along the rotational axes: 
x,y,z [a.u.] :     0.701639     0.000000    -0.000000 
x,y,z [Debye]:     1.783424     0.000000    -0.000000 

 

-------------
DIPOLE MOMENT
-------------

Method             : MDCI(SD)
Type of density    : Electron Density
Multiplicity       :   2
Level              : Linearized density
Irrep              :   0
Energy             :     0.0000000000000000 Eh
Basis              : AO
                                X                 Y                 Z
Electronic contribution:     -0.000000000       0.000000000      -0.204066866
Nuclear contribution   :      0.000000000       0.000000000       0.855251935
                        -----------------------------------------
Total Dipole Moment    :     -0.000000000       0.000000000       0.651185069
                        -----------------------------------------
Magnitude (a.u.)       :      0.651185069
Magnitude (Debye)      :      1.655180906



--------------------
Rotational spectrum 
--------------------
 
Rotational constants in cm-1:             0.000000            18.893782            18.893782 
Rotational constants in MHz :             0.000000        566421.349023        566421.349023 

Dipole components along the rotational axes: 
x,y,z [a.u.] :     0.651185     0.000000    -0.000000 
x,y,z [Debye]:     1.655181     0.000000    -0.000000 

 

Dipole moment calculation done in   0.0 sec 

Maximum memory used throughout the entire PROP-calculation: 8.2 MB

--------------------------------
SUGGESTED CITATIONS FOR THIS RUN
--------------------------------

Below you find a list of papers that are relevant to this ORCA run
We neither can nor want to force you to cite these papers, but we appreciate if you do
You receive ORCA, which is the product of decades of hard work by many enthusiastic individuals, for free
The only thing we kindly ask in return is that you cite our papers,
We deeply appreciate it, if you show your appreciation for ORCA by not just citing the generic ORCA reference.

Please note that relegating all ORCA citations to the supporting information does *not* help us.
SI sections are not indexed - citations you put there will not count into any citation statistics
But we need these citations in order to attract the funding resources that allow us to do what we are doing

Therefore, if you are a happy ORCA user, please consider citing a few of the papers listed below in the main body of your paper

In addition to the list printed below, the program has created the file sp.bibtex that contains the list in bibtex format
You can import this file easily into all common literature databanks and citation aid programs

It goes without saying that in many instances, there are alternative algorithms to achieve similar
results as the ones you have gotten from ORCA. It is, of course, also the case that in some instances
ORCA just re-implements algorithms worked out by others. We are fully aware of that and we are also
fully appreciative of our colleagues work. Hence this citation list should not be read as indicating
that the listed papers, which are focused on our own work, are the only ones worth citing. It simply
meant to make it easier for users to cite ORCA specific papers. It is not a substitute for doing your
own literature research and citing the relevant literature in a scientifically appropriate manner.

List of essential papers. We consider these as the minimum necessary citations

  1. Neese, F.
     Software update: the ORCA program system, version 6.0
     WIRES Comput. Molec. Sci. 2025 15(1), e70019
     doi.org/10.1002/wcms.70019

List of papers to cite with high priority. The work reported in these papers was absolutely
necessary for this run to complete.
Our perspective: the developers of density functionals and basis sets usually get cited in chemistry papers
Good! But without the algorithms to do something with them, the functionals or basis sets would not do anything.
Hence, in our opinion, the algorithm design and method developments papers are equally worthy of getting cited

  1. Pavosevic, F.; Neese, F.; Valeev, E.F.
     Geminal-spanning orbitals make explicitly correlated reduced-scaling coupled-cluster methods robust, yet simple
     J. Chem. Phys. 2014 141 , 
     doi.org/10.1063/1.4890002
  2. Neese, F.
     The SHARK Integral Generation and Digestion System
     J. Comp. Chem. 2022 44(3), 381
     doi.org/10.1002/jcc.26942

List of suggested additional citations. These are papers that are important in the 'surrounding' of 
of this run, or papers that preceded the highly important papers. If you like your results we are grateful for a citation.

  1. Neese, F.
     The ORCA program system
     WIRES Comput. Molec. Sci. 2012 2(1), 73-78
     doi.org/10.1002/wcms.81
  2. Neese, F.
     Software update: the ORCA program system, version 4.0
     WIRES Comput. Molec. Sci. 2018 8(1), 1-6
     doi.org/10.1002/wcms.1327
  3. Neese, F.; Wennmohs, F.; Becker, U.; Riplinger, C.
     The ORCA quantum chemistry program package
     J. Chem. Phys. 2020 152(22), 224108
     doi.org/10.1063/5.0004608
  4. Neese, F.
     Software update: The ORCA program system—Version 5.0
     WIRES Comput. Molec. Sci. 2022 12(1), e1606
     doi.org/10.1002/wcms.1606

List of optional additional citations

  1. Neese, F.
     Approximate second-order SCF convergence for spin unrestricted wavefunctions
     Chem. Phys. Lett. 2000 325(1-3), 93-98
     doi.org/10.1016/s0009-2614(00)00662-x

Timings for individual modules:

Sum of individual times          ...       20.759 sec (=   0.346 min)
Startup calculation              ...        3.170 sec (=   0.053 min)  15.3 %
SCF iterations                   ...        5.957 sec (=   0.099 min)  28.7 %
Property integrals               ...        3.126 sec (=   0.052 min)  15.1 %
Property calculations            ...        2.841 sec (=   0.047 min)  13.7 %
MDCI module                      ...        5.665 sec (=   0.094 min)  27.3 %
                             ****ORCA TERMINATED NORMALLY****
TOTAL RUN TIME: 0 days 0 hours 0 minutes 23 seconds 496 msec
