
                                 *****************
                                 * O   R   C   A *
                                 *****************

                                            #,                                       
                                            ###                                      
                                            ####                                     
                                            #####                                    
                                            ######                                   
                                           ########,                                 
                                     ,,################,,,,,                         
                               ,,#################################,,                 
                          ,,##########################################,,             
                       ,#########################################, ''#####,          
                    ,#############################################,,   '####,        
                  ,##################################################,,,,####,       
                ,###########''''           ''''###############################       
              ,#####''   ,,,,##########,,,,          '''####'''          '####       
            ,##' ,,,,###########################,,,                        '##       
           ' ,,###''''                  '''############,,,                           
         ,,##''                                '''############,,,,        ,,,,,,###''
      ,#''                                            '''#######################'''  
     '                                                          ''''####''''         
             ,#######,   #######,   ,#######,      ##                                
            ,#'     '#,  ##    ##  ,#'     '#,    #''#        ,####,    ,#,          
            ##       ##  ##   ,#'  ##            #'  '#       #'       ,# #          
            ##       ##  #######   ##           ,######,      #####,      #          
            '#,     ,#'  ##    ##  '#,     ,#' ,#      #,     #,   #      #          
             '#######'   ##     ##  '#######'  #'      '#     '####' #    #          



                #########################################################
                #                        -***-                          #
                #          Department of theory and spectroscopy        #
                #                                                       #
                #                      Frank Neese                      #
                #                                                       #
                #     Directorship, Architecture, Infrastructure        #
                #                    SHARK, DRIVERS                     #
                #        Core code/Algorithms in most modules           #
                #                                                       #
                #        Max Planck Institute fuer Kohlenforschung      #
                #                Kaiser Wilhelm Platz 1                 #
                #                 D-45470 Muelheim/Ruhr                 #
                #                      Germany                          #
                #                                                       #
                #                  All rights reserved                  #
                #                        -***-                          #
                #########################################################


                         Program Version 6.1.1  -  RELEASE   -
                                (GIT: $487d211c$)
                          ($2025-11-21 10:33:24 +0100$)


 With contributions from (in alphabetic order):
[Max-Planck-Institut fuer Kohlenforschung]                               
  Daniel Aravena         : Magnetic Suceptibility                        
  Michael Atanasov       : Ab Initio Ligand Field Theory (pilot matlab implementation)
  Alexander A. Auer      : GIAO ZORA, VPT2 properties, NMR spectrum      
  Ute Becker             : All parallelization in ORCA, NUMFREQ, NUMCALC 
  Giovanni Bistoni       : ED, misc. LED, open-shell LED, HFLD           
  Dmytro Bykov           : pre 5.0 version of the SCF Hessian            
  Marcos Casanova-Páez   : Triplet and SCS-CIS(D). UHF-(DLPNO)-IP/EA/STEOM-CCSD. UHF-CVS-IP/STEOM-CCSD   
  Vijay G. Chilkuri      : MRCI spin determinant printing, contributions to CSF-ICE 
  Pauline Colinet        : FMM embedding                                 
  Dipayan Datta          : RHF DLPNO-CCSD density                        
  Achintya Kumar Dutta   : EOM-CC, STEOM-CC                              
  Nicolas Foglia         : Exact transition moments, OPA infrastructure, MCD improvements    
  Dmitry Ganyushin       : Spin-Orbit,Spin-Spin,Magnetic field MRCI      
  Miquel Garcia-Rates    : C-PCM and meta-GGA Hessian, CCSD/C-PCM, Gaussian charge scheme 
  Tiago L. C. Gouveia    : GS-ROHF, GS-ROCIS                             
  Yang Guo               : DLPNO-NEVPT2, F12-NEVPT2, CIM, IAO-localization        
  Andreas Hansen         : Spin unrestricted coupled pair/coupled cluster methods 
  Ingolf Harden          : AUTO-CI MPn and infrastructure                
  Benjamin Helmich-Paris : MC-RPA, TRAH-(SCF,CASSCF), AVAS, COSX integrals, SCF dyn. polar., MC-PDFT, srDFT 
  Lee Huntington         : MR-EOM, pCC                                   
  Robert Izsak           : Overlap fitted RIJCOSX, COSX-SCS-MP3, EOM     
  Riya Kayal             : Wick's Theorem for AUTO-CI, AUTO-CI UHF-CCSDT 
  Emily Kempfer          : AUTO-CI RHF CISDT and CCSDT, approximate NEVPT4
  Christian Kollmar      : KDIIS, OOCD, Brueckner-CCSD(T), CCSD density, CASPT2, CASPT2-K, improved NEVPT2 
  Axel Koslowski         : Symmetry handling                             
  Simone Kossmann        : meta-GGA functionals, TD-DFT gradient, OOMP2, (MP2 Hessian; deprecated post 5.0) 
  Lucas Lang             : DCDCAS, Hyperfine gauge corrections, ICE-SOC+SSC
  Marvin Lechner         : AUTO-CI (C++ implementation), FIC-MRCC        
  Spencer Leger          : CASSCF response                               
  Dagmar Lenk            : GEPOL surface, SMD, ORCA-2-JSON               
  Dimitrios Liakos       : Extrapolation schemes; Compound Job, Property file
  Dimitrios Manganas     : Further ROCIS development; embedding schemes. LFT, Crystal Embedding 
  Dimitrios Pantazis     : SARC Basis sets                               
  Anastasios Papadopoulos: AUTO-CI, single reference methods and gradients 
  Taras Petrenko         : pre 6.0 DFT Hessian and TD-DFT gradient,  ECA, NRVS 
  Petra Pikulova         : Analytic Raman intensities                    
  Peter Pinski           : DLPNO-MP2, DLPNO-MP2 Gradient                 
  Shashank Vittal Rao    : ES-AILFT, MagRelax                            
  Christoph Reimann      : Effective Core Potentials                     
  Marius Retegan         : Local ZFS, SOC                                
  Christoph Riplinger    : Optimizer, TS searches, QM/MM, DLPNO-CCSD(T), (RO)-DLPNO pert. Triples 
  Michael Roemelt        : Original ROCIS implementation, recursive CI coupling coefficients
  Masaaki Saitow         : Open-shell DLPNO-CCSD energy and density      
  Barbara Sandhoefer     : DKH picture change effects                    
  Yorick L. A. Schmerwitz: GMF and freeze-and-release deltaSCF, NEB S-IDPP initial path                    
  Kantharuban Sivalingam : CASSCF convergence/infrastructure, NEVPT2, NEVPT3, NEVPT4(SD), FIC-MRCI and CEPA variants
  Bernardo de Souza      : ESD, SOC TD-DFT                               
  Georgi L. Stoychev     : AutoAux, RI-MP2 NMR, DLPNO-MP2 response, X2C  
  Van Anh Tran           : RI-MP2 g-tensors                              
  Willem Van den Heuvel  : Paramagnetic NMR                              
  Zikuan Wang            : NOTCH, Electric field optimization            
  Frank Wennmohs         : Technical directorship and infrastructure     
  Hang Xu                : AUTO-CI-Response properties                   
                                                                         
[FACCTs GmbH]                                                            
  Markus Bursch, Nicolas Foglia, Miquel Garcia-Rates, Ingolf Harden, Hagen Neugebauer, Anastasios Papadopoulos, 
  Christoph Riplinger, Bernardo de Souza, Georgi L. Stoychev                                                    
                                                                 
  APM, various basis sets, CI-OPT, improved COSX, DLPNO-Multilevel,           
  DOCKER, DRACO, updates on ESD, Fragmentator, GOAT, IRC, LR-CPCM, L-BFGS, MBIS, meta-GGA TD-DFT gradient, ML-optimized integration grids, 
  MM, NACMEs, nearIR, NEB, NEB-TS, NL-DFT gradient (VV10), 2- and 3-layer-ONIOM, interface openCOSMO-RS, QMMM,   
  Crystal-QMMM, RESP, rigid body optimization, SF, symmetry and pop. for TD-DFT, various functionals, SOLVATOR                                   
                                                                         
[Other institutions]                                                     
  V. Asgeirsson          : NEB                                           
  Christoph Bannwarth    : sTDA-DFT, sTD-DFT, PBEh-3c, B97-3c, D3        
  Giovanni Bistoni       : ETS/NOCV, ADLD/ADEX, COVALED                  
  Martin Brehm           : Molecular dynamics                            
  Ronald Cardenas        : ETS/NOCV                                      
  Martina Colucci        : COVALED                                       
  Sebastian Ehlert       : rSCAN, r2SCAN, r2SCAN-3c, D4, dhf basis sets  
  Marvin Friede          : D4 for Fr, Ra, Ac-Lr                          
  Lars Goerigk           : TD-DFT with DH, B97 family of functionals     
  Stefan Grimme          : VdW corrections, initial TS optimization, DFT functionals, gCP, sTDA/sTD-DF 
  Waldemar Hujo          : DFT-NL                                        
  H. Jonsson             : NEB                                           
  Holger Kruse           : gCP                                           
  Marcel Mueller         : wB97X-3c, vDZP basis set                      
  Hagen Neugebauer       : wr2SCAN, Native XTB                           
  Gianluca Regni         : ADLD/ADEX                                     
  Tobias Risthaus        : pre 6.0 range-separated hybrid DFT and stability analysis
  Lukas Wittmann         : regularized MP2, r2SCAN double-hybrids, wr2SCAN        
                                                                         
We gratefully acknowledge several colleagues who have allowed us to      
interface, adapt or use parts of their codes:                            
  Ed Valeev, F. Pavosevic, A. Kumar             : LibInt (2-el integral package), F12 methods 
  Garnet Chan, S. Sharma, J. Yang, R. Olivares  : DMRG                   
  Ulf Ekstrom                                   : XCFun DFT Library      
  Mihaly Kallay                                 : mrcc  (arbitrary order and MRCC methods)
  Frank Weinhold                                : gennbo (NPA and NBO analysis)           
  Simon Mueller                                 : openCOSMO-RS                            
  Christopher J. Cramer and Donald G. Truhlar   : smd solvation model                     
  S Lehtola, MJT Oliveira, MAL Marques          : LibXC Library                           
  Liviu Ungur et al                             : ANISO software                          


 Your calculation uses the libint2 library for the computation of 2-el integrals
 For citations please refer to: http://libint.valeyev.net

 Your ORCA version has been built with support for libXC version: 7.0.0
 For citations please refer to: https://libxc.gitlab.io

 This ORCA versions uses:
   CBLAS   interface :  Fast vector & matrix operations
   LAPACKE interface :  Fast linear algebra routines
   SCALAPACK package :  Parallel linear algebra routines
   Shared memory     :  Shared parallel matrices
   BLAS/LAPACK       :  OpenBLAS 0.3.29  USE64BITINT DYNAMIC_ARCH NO_AFFINITY Zen SINGLE_THREADED
        Core in use  :  Zen
   Copyright (c) 2011-2014, The OpenBLAS Project


  ***********************************
  * Starting time: Tue Mar 10 16:47:51 2026
  * Host name:     b1-13
  * Process ID:    4001424
  * Working dir.:  /tmp/lscratch/avcopan/43472609
  ***********************************

NOTE: MaxCore=6000 MB was set to SCF,MP2,MDCI,CIPSI,MRCI,RASCI and CIS
      => If you want to overwrite this, your respective input block should be placed after the MaxCore statement


***************************************
The coordinates will be read from file: guess.xyz
***************************************


Your calculation utilizes the atom-pairwise dispersion correction
based on EEQ partial charges (D4)


Warning: RI is on but no J-basis has been assigned. Assigning Def2/J (nothing to worry about!)
================================================================================

----- Orbital basis set information -----
Your calculation utilizes the basis: def2-TZVPP
   F. Weigend and R. Ahlrichs, Phys. Chem. Chem. Phys. 7, 3297 (2005).

----- AuxJ basis set information -----
Your calculation utilizes the auxiliary basis: def2/J
   H-Rn: F. Weigend, Phys. Chem. Chem. Phys. 8, 1057 (2006).
   Fr-Lr: K. Eichkorn, F. Weigend, O. Treutler, R. Ahlrichs; Theor. Chem. Acc. 97, 119 (1997).

----- AuxC basis set information -----
Your calculation utilizes the auxiliary basis: def2-TZVPP/C
  H-La, Hf-Rn : A. Hellweg, C. Hattig, S. Hofener and W. Klopper, Theor. Chem. Acc. 117, 587 (2007).
        Ce-Lu : J. Chmela and M. E. Harding, Mol. Phys. (2018).

================================================================================
                                        WARNINGS
                       Please study these warnings very carefully!
================================================================================


WARNING: your system is open-shell and RHF/RKS was chosen
  ===> : WILL SWITCH to UHF/UKS


WARNING: The frozen-core approximation for MP2-gradient calculations is turned on by default.

WARNING: The environment variable RSH_COMMAND is not set!
  ===> : All Displacements for the Numerical Hessian or Gradient calculation
         will be started on localhost

WARNING: Geometry Optimization
  ===> : Switching off AutoStart
         For restart on a previous wavefunction, please use MOREAD

WARNING: The frozen-core approximation is turned on by default for 
         the MP2 part of double-hybrid DFT.

================================================================================
                                       INPUT FILE
================================================================================
NAME = opt.inp
|  1> % MaxCore 6000
|  2> ! PAL8
|  3> ! REVDSD-PBEP86-D4/2021 def2-TZVPP def2-TZVPP/c
|  4> ! Opt
|  5> ! NumFreq
|  6> * xyzfile 0 2 guess.xyz
|  7> 
|  8>                          ****END OF INPUT****
================================================================================

                       *****************************
                       * Geometry Optimization Run *
                       *****************************

Geometry optimization settings:
Update method            Update   .... BFGS
Choice of coordinates    CoordSys .... (2022) Redundant Internals
Initial Hessian          InHess   .... Almloef's Model
Max. no of cycles        MaxIter  .... 50

Convergence Tolerances:
Energy Change            TolE     ....  5.0000e-06 Eh
Max. Gradient            TolMAXG  ....  3.0000e-04 Eh/bohr
RMS Gradient             TolRMSG  ....  1.0000e-04 Eh/bohr
Max. Displacement        TolMAXD  ....  4.0000e-03 bohr
RMS Displacement         TolRMSD  ....  2.0000e-03 bohr
Strict Convergence                .... False

------------------------------------------------------------------------------
                        ORCA OPTIMIZATION COORDINATE SETUP
------------------------------------------------------------------------------

The optimization will be done in redundant internal coordinates (2022)
Making redundant internal coordinates   ...  (2022 redundants) done
Evaluating the initial hessian          ...  (Almloef) done
Evaluating the coordinates              ...  done
Calculating the B-matrix                .... done
Calculating the G-matrix                .... done
The number of degrees of freedom        ....   71

    -----------------------------------------------------------------
                    Redundant Internal Coordinates


    -----------------------------------------------------------------
         Definition                    Initial Value    Approx d2E/dq
    -----------------------------------------------------------------
      1. B(C   1,C   0)                  1.3390         0.753468   
      2. B(H   2,C   0)                  1.0995         0.347754   
      3. B(C   3,C   1)                  1.4972         0.421374   
      4. B(H   4,C   1)                  1.0874         0.363585   
      5. B(C   5,C   3)                  1.5534         0.342851   
      6. B(H   6,C   3)                  1.1043         0.341717   
      7. B(H   7,C   3)                  1.0891         0.361275   
      8. B(C   8,C   5)                  1.5278         0.376574   
      9. B(C   8,C   0)                  1.4856         0.439763   
     10. B(H   9,C   5)                  1.0793         0.374482   
     11. B(H  10,C   5)                  1.1029         0.343481   
     12. B(H  11,C   8)                  1.2504         0.199751   
     13. B(H  12,C   8)                  1.0988         0.348667   
     14. B(O  13,H  11)                  1.3363         0.130475   
     15. B(H  14,O  13)                  1.1643         0.245468   
     16. A(H   2,C   0,C   8)          126.3627         0.331249   
     17. A(C   1,C   0,H   2)          122.7751         0.362646   
     18. A(C   1,C   0,C   8)          110.8230         0.422659   
     19. A(C   0,C   1,H   4)          126.9294         0.365418   
     20. A(C   3,C   1,H   4)          120.7008         0.331348   
     21. A(C   0,C   1,C   3)          112.2470         0.419449   
     22. A(C   5,C   3,H   6)          112.9570         0.317071   
     23. A(C   1,C   3,H   6)          109.5762         0.327969   
     24. A(C   1,C   3,C   5)          102.5351         0.365507   
     25. A(H   6,C   3,H   7)          107.1556         0.288607   
     26. A(C   5,C   3,H   7)          112.8917         0.319962   
     27. A(C   1,C   3,H   7)          111.7459         0.330998   
     28. A(C   3,C   5,H   9)          114.2703         0.321847   
     29. A(C   3,C   5,C   8)          104.3616         0.358561   
     30. A(C   8,C   5,H  10)          109.6900         0.322237   
     31. A(C   3,C   5,H  10)          107.6740         0.317337   
     32. A(C   8,C   5,H   9)          111.5129         0.326844   
     33. A(H   9,C   5,H  10)          109.1490         0.290470   
     34. A(C   0,C   8,C   5)          104.3845         0.374185   
     35. A(H  11,C   8,H  12)          101.1618         0.264350   
     36. A(C   5,C   8,H  12)          118.2078         0.323030   
     37. A(C   0,C   8,H  12)          116.9600         0.331392   
     38. A(C   5,C   8,H  11)          107.9642         0.295308   
     39. A(C   0,C   8,H  11)          107.4829         0.302680   
     40. A(C   8,H  11,O  13)          168.4499         0.227738   
     41. A(H  11,O  13,H  14)           92.0551         0.232670   
     42. D(C   3,C   1,C   0,H   2)    178.4956         0.040523   
     43. D(C   3,C   1,C   0,C   8)      0.6402         0.040523   
     44. D(H   4,C   1,C   0,C   8)   -175.3179         0.040523   
     45. D(H   4,C   1,C   0,H   2)      2.5375         0.040523   
     46. D(C   5,C   3,C   1,H   4)   -169.8310         0.013127   
     47. D(H   6,C   3,C   1,C   0)   -106.2821         0.013127   
     48. D(H   7,C   3,C   1,C   0)    135.1046         0.013127   
     49. D(H   6,C   3,C   1,H   4)     69.9607         0.013127   
     50. D(C   5,C   3,C   1,C   0)     13.9262         0.013127   
     51. D(H   9,C   5,C   3,H   6)    -26.3428         0.010000   
     52. D(C   8,C   5,C   3,H   7)   -142.5160         0.010000   
     53. D(C   8,C   5,C   3,H   6)     95.7092         0.010000   
     54. D(C   8,C   5,C   3,C   1)    -22.1271         0.010000   
     55. D(H   9,C   5,C   3,H   7)     95.4320         0.010000   
     56. D(H   9,C   5,C   3,C   1)   -144.1791         0.010000   
     57. D(H  11,C   8,C   5,H  10)    153.5836         0.011313   
     58. D(H  11,C   8,C   5,H   9)     32.5500         0.011313   
     59. D(H  11,C   8,C   5,C   3)    -91.2984         0.011313   
     60. D(C   0,C   8,C   5,H   9)    146.7042         0.011313   
     61. D(C   0,C   8,C   5,C   3)     22.8558         0.011313   
     62. D(H  12,C   8,C   0,C   1)   -147.9650         0.014270   
     63. D(C   0,C   8,C   5,H  10)    -92.2622         0.011313   
     64. D(H  11,C   8,C   0,H   2)    -78.5502         0.014270   
     65. D(H  11,C   8,C   0,C   1)     99.2105         0.014270   
     66. D(C   5,C   8,C   0,H   2)    166.9554         0.014270   
     67. D(C   5,C   8,C   0,C   1)    -15.2840         0.014270   
     68. D(O  13,H  11,C   8,H  12)   -177.0502         0.030698   
     69. D(O  13,H  11,C   8,C   5)     58.1683         0.030698   
     70. D(O  13,H  11,C   8,C   0)    -53.9136         0.030698   
     71. D(H  14,O  13,H  11,C   8)      3.8021         0.012137   
    -----------------------------------------------------------------

Number of atoms                         .... 15
Number of degrees of freedom            .... 71


         *************************************************************
         *                GEOMETRY OPTIMIZATION CYCLE   1            *
         *************************************************************
---------------------------------
CARTESIAN COORDINATES (ANGSTROEM)
---------------------------------
  C     -0.341923    1.190338    0.507430
  C     -1.260005    0.883503   -0.417755
  H     -0.158647    2.220433    0.845376
  C     -1.286808   -0.581464   -0.725711
  H     -1.892724    1.577651   -0.965675
  C     -0.461347   -1.186744    0.442699
  H     -0.828760   -0.760134   -1.714481
  H     -2.304809   -0.966128   -0.769015
  C      0.393261   -0.024171    0.945006
  H      0.146962   -2.033665    0.164025
  H     -1.170358   -1.493888    1.229636
  H      1.479744   -0.048811    0.326549
  H      0.741081   -0.047540    1.987023
  O      2.485758   -0.054017   -0.553072
  H      1.759914    0.114863   -1.447644

----------------------------
CARTESIAN COORDINATES (A.U.)
----------------------------
  NO LB      ZA    FRAG     MASS         X           Y           Z
   0 C     6.0000    0    12.011   -0.646141    2.249413    0.958904
   1 C     6.0000    0    12.011   -2.381064    1.669579   -0.789443
   2 H     1.0000    0     1.008   -0.299799    4.196010    1.597529
   3 C     6.0000    0    12.011   -2.431715   -1.098808   -1.371395
   4 H     1.0000    0     1.008   -3.576730    2.981328   -1.824861
   5 C     6.0000    0    12.011   -0.871819   -2.242621    0.836580
   6 H     1.0000    0     1.008   -1.566129   -1.436445   -3.239900
   7 H     1.0000    0     1.008   -4.355458   -1.825717   -1.453228
   8 C     6.0000    0    12.011    0.743156   -0.045677    1.785803
   9 H     1.0000    0     1.008    0.277718   -3.843070    0.309962
  10 H     1.0000    0     1.008   -2.211656   -2.823039    2.323675
  11 H     1.0000    0     1.008    2.796311   -0.092239    0.617088
  12 H     1.0000    0     1.008    1.400440   -0.089838    3.754929
  13 O     8.0000    0    15.999    4.697402   -0.102077   -1.045155
  14 H     1.0000    0     1.008    3.325755    0.217060   -2.735651

--------------------------------
INTERNAL COORDINATES (ANGSTROEM)
--------------------------------
 C      0   0   0     0.000000000000     0.00000000     0.00000000
 C      1   0   0     1.339025601015     0.00000000     0.00000000
 H      1   2   0     1.099496839521   122.77508842     0.00000000
 C      2   1   3     1.497225303631   112.24701447   178.49556540
 H      2   1   3     1.087378087541   126.92944530     2.53745426
 C      4   2   1     1.553361409660   102.53510217    13.92616963
 H      4   2   1     1.104263126299   109.57623308   253.71794784
 H      4   2   1     1.089113247240   111.74593567   135.10457331
 C      1   2   3     1.485597651019   110.82299849   182.14467589
 H      6   4   2     1.079339713898   114.27028135   215.82093286
 H      6   4   2     1.102861676198   107.67403033    94.39957327
 H      9   1   2     1.250416530496   107.48294495    99.21050572
 H      9   1   2     1.098783095452   116.95998242   212.03500942
 O     12   9   1     1.336347400294   168.44987152   306.08642479
 H     14  12   9     1.164314832818    92.05507775     3.80209011

---------------------------
INTERNAL COORDINATES (A.U.)
---------------------------
 C      0   0   0     0.000000000000     0.00000000     0.00000000
 C      1   0   0     2.530391672228     0.00000000     0.00000000
 H      1   2   0     2.077747911807   122.77508842     0.00000000
 C      2   1   3     2.829345784640   112.24701447   178.49556540
 H      2   1   3     2.054846789480   126.92944530     2.53745426
 C      4   2   1     2.935427651259   102.53510217    13.92616963
 H      4   2   1     2.086754888493   109.57623308   253.71794784
 H      4   2   1     2.058125766109   111.74593567   135.10457331
 C      1   2   3     2.807372705623   110.82299849   182.14467589
 H      6   4   2     2.039656464733   114.27028135   215.82093286
 H      6   4   2     2.084106531611   107.67403033    94.39957327
 H      9   1   2     2.362944795966   107.48294495    99.21050572
 H      9   1   2     2.076399130986   116.95998242   212.03500942
 O     12   9   1     2.525330606334   168.44987152   306.08642479
 H     14  12   9     2.200236167688    92.05507775     3.80209011

---------------------
BASIS SET INFORMATION
---------------------
There are 3 groups of distinct atoms

 Group   1 Type C   : 11s6p2d1f contracted to 5s3p2d1f pattern {62111/411/11/1}
 Group   2 Type H   : 5s2p1d contracted to 3s2p1d pattern {311/11/1}
 Group   3 Type O   : 11s6p2d1f contracted to 5s3p2d1f pattern {62111/411/11/1}

Atom   0C    basis set group =>   1
Atom   1C    basis set group =>   1
Atom   2H    basis set group =>   2
Atom   3C    basis set group =>   1
Atom   4H    basis set group =>   2
Atom   5C    basis set group =>   1
Atom   6H    basis set group =>   2
Atom   7H    basis set group =>   2
Atom   8C    basis set group =>   1
Atom   9H    basis set group =>   2
Atom  10H    basis set group =>   2
Atom  11H    basis set group =>   2
Atom  12H    basis set group =>   2
Atom  13O    basis set group =>   3
Atom  14H    basis set group =>   2
---------------------------------
AUXILIARY/J BASIS SET INFORMATION
---------------------------------
There are 3 groups of distinct atoms

 Group   1 Type C   : 12s5p4d2f1g contracted to 6s4p3d1f1g pattern {711111/2111/211/2/1}
 Group   2 Type H   : 5s2p1d contracted to 3s1p1d pattern {311/2/1}
 Group   3 Type O   : 12s5p4d2f1g contracted to 6s4p3d1f1g pattern {711111/2111/211/2/1}

Atom   0C    basis set group =>   1
Atom   1C    basis set group =>   1
Atom   2H    basis set group =>   2
Atom   3C    basis set group =>   1
Atom   4H    basis set group =>   2
Atom   5C    basis set group =>   1
Atom   6H    basis set group =>   2
Atom   7H    basis set group =>   2
Atom   8C    basis set group =>   1
Atom   9H    basis set group =>   2
Atom  10H    basis set group =>   2
Atom  11H    basis set group =>   2
Atom  12H    basis set group =>   2
Atom  13O    basis set group =>   3
Atom  14H    basis set group =>   2
---------------------------------
AUXILIARY/C BASIS SET INFORMATION
---------------------------------
There are 3 groups of distinct atoms

 Group   1 Type C   : 8s6p5d3f1g contracted to 8s6p4d3f1g pattern {11111111/111111/2111/111/1}
 Group   2 Type H   : 4s3p2d1f contracted to 4s3p2d1f pattern {1111/111/11/1}
 Group   3 Type O   : 8s6p5d3f1g contracted to 8s6p4d3f1g pattern {11111111/111111/2111/111/1}

Atom   0C    basis set group =>   1
Atom   1C    basis set group =>   1
Atom   2H    basis set group =>   2
Atom   3C    basis set group =>   1
Atom   4H    basis set group =>   2
Atom   5C    basis set group =>   1
Atom   6H    basis set group =>   2
Atom   7H    basis set group =>   2
Atom   8C    basis set group =>   1
Atom   9H    basis set group =>   2
Atom  10H    basis set group =>   2
Atom  11H    basis set group =>   2
Atom  12H    basis set group =>   2
Atom  13O    basis set group =>   3
Atom  14H    basis set group =>   2


           ************************************************************
           *        Program running with 8 parallel MPI-processes     *
           *              working on a common directory               *
           ************************************************************
------------------------------------------------------------------------------
                             ORCA STARTUP CALCULATIONS
                           -- RI-GTO INTEGRALS CHOSEN --
------------------------------------------------------------------------------
------------------------------------------------------------------------------
                   ___                                                        
                  /   \      - P O W E R E D   B Y -                         
                 /     \                                                     
                 |  |  |   _    _      __       _____    __    __             
                 |  |  |  | |  | |    /  \     |  _  \  |  |  /  |          
                  \  \/   | |  | |   /    \    | | | |  |  | /  /          
                 / \  \   | |__| |  /  /\  \   | |_| |  |  |/  /          
                |  |  |   |  __  | /  /__\  \  |    /   |      \           
                |  |  |   | |  | | |   __   |  |    \   |  |\   \          
                \     /   | |  | | |  |  |  |  | |\  \  |  | \   \       
                 \___/    |_|  |_| |__|  |__|  |_| \__\ |__|  \__/        
                                                                              
                      - O R C A' S   B I G   F R I E N D -                    
                                      &                                       
                       - I N T E G R A L  F E E D E R -                       
                                                                              
 v1 FN, 2020, v2 2021, v3 2022-2024                                           
------------------------------------------------------------------------------


----------------------
SHARK INTEGRAL PACKAGE
----------------------

Number of atoms                             ...     15
Number of basis functions                   ...    312
Number of shells                            ...    120
Maximum angular momentum                    ...      3
Integral batch strategy                     ... SHARK/LIBINT Hybrid
RI-J (if used) integral strategy            ... SPLIT-RIJ (Revised 2003 algorithm where possible)
Printlevel                                  ...      1
Contraction scheme used                     ... SEGMENTED contraction
Prescreening option                         ... SCHWARTZ
   Thresh                                   ... 2.500e-11
   Tcut                                     ... 2.500e-12
   Tpresel                                  ... 2.500e-12 
Coulomb Range Separation                    ... NOT USED
Exchange Range Separation                   ... NOT USED
Multipole approximations                    ... NOT USED
Finite Nucleus Model                        ... NOT USED
CABS basis                                  ... NOT available
Auxiliary Coulomb fitting basis             ... AVAILABLE
   # of basis functions in Aux-J            ...    393
   # of shells in Aux-J                     ...    135
   Maximum angular momentum in Aux-J        ...      4
Auxiliary J/K fitting basis                 ... NOT available
Auxiliary Correlation fitting basis         ... AVAILABLE
   # of basis functions in Aux-C            ...    726
   # of shells in Aux-C                     ...    222
   Maximum angular momentum in Aux-C        ...      4
Auxiliary 'external' fitting basis          ... NOT available

Checking pre-screening integrals            ... done (  0.0 sec) Dimension = 120
   => SHARK Basis and OBASIS are compatible. Storing Pre-screening
Shell pair information
Shell pair cut-off parameter TPreSel        ...   2.5e-12
Total number of shell pairs                 ...      7260
Shell pairs after pre-screening             ...      6820
Total number of primitive shell pairs       ...     18687
Primitive shell pairs kept                  ...     14098
          la=0 lb=0:   1520 shell pairs
          la=1 lb=0:   1935 shell pairs
          la=1 lb=1:    644 shell pairs
          la=2 lb=0:   1104 shell pairs
          la=2 lb=1:    717 shell pairs
          la=2 lb=2:    218 shell pairs
          la=3 lb=0:    326 shell pairs
          la=3 lb=1:    212 shell pairs
          la=3 lb=2:    123 shell pairs
          la=3 lb=3:     21 shell pairs

Checking whether 4 symmetric matrices of dimension 312 fit in memory
:Max Core in MB      =   6000.00
 MB in use           =     11.81
 MB left             =   5988.19
 MB needed           =      1.49
 Data fit in memory  = YES
Calculating RI/J V-Matrix + Cholesky decomp.... done (  0.0 sec)
Calculating RI/C V-Matrix + Cholesky decomp.... done (  0.0 sec)
Calculating Nuclear repulsion               ... done (  0.0 sec) ENN=    231.092118861430 Eh

Diagonalization of the overlap matrix:
Smallest eigenvalue                        ... 7.924e-05
Time for diagonalization                   ...    0.012 sec
Threshold for overlap eigenvalues          ... 1.000e-07
Number of eigenvalues below threshold      ... 0
Time for construction of square roots      ...    0.004 sec
Total time needed                          ...    0.017 sec

-------------------
DFT GRID GENERATION
-------------------

General Integration Accuracy     IntAcc      ... 4.388
Radial Grid Type                 RadialGrid  ... OptM3 with GC (2021)
Angular Grid (max. ang.)         AngularGrid ... 4 (Lebedev-302)
Angular grid pruning method      GridPruning ... 4 (adaptive)
Weight generation scheme         WeightScheme... mBecke (2022)
Basis function cutoff            BFCut       ... 1.0000e-11
Integration weight cutoff        WCut        ... 1.0000e-14
Partially contracted basis set               ... off
Rotationally invariant grid construction     ... off
Angular grids for H and He will be reduced by one unit

Total number of grid points                  ...    65121
Total number of batches                      ...     1025
Average number of points per batch           ...       63
Average number of grid points per atom       ...     4341

--------------------
COSX GRID GENERATION
--------------------

GRIDX 1
-------
General Integration Accuracy     IntAcc      ... 3.816
Radial Grid Type                 RadialGrid  ... OptM3 with GC (2021)
Angular Grid (max. ang.)         AngularGrid ... 1 (Lebedev-50)
Angular grid pruning method      GridPruning ... 4 (adaptive)
Weight generation scheme         WeightScheme... mBecke (2022)
Basis function cutoff            BFCut       ... 1.0000e-11
Integration weight cutoff        WCut        ... 1.0000e-14
Partially contracted basis set               ... on
Rotationally invariant grid construction     ... off
Angular grids for H and He will be reduced by one unit

Total number of grid points                  ...     8358
Total number of batches                      ...       75
Average number of points per batch           ...      111
Average number of grid points per atom       ...      557
UseSFitting                                  ... on

GRIDX 2
-------
General Integration Accuracy     IntAcc      ... 4.020
Radial Grid Type                 RadialGrid  ... OptM3 with GC (2021)
Angular Grid (max. ang.)         AngularGrid ... 2 (Lebedev-110)
Angular grid pruning method      GridPruning ... 4 (adaptive)
Weight generation scheme         WeightScheme... mBecke (2022)
Basis function cutoff            BFCut       ... 1.0000e-11
Integration weight cutoff        WCut        ... 1.0000e-14
Partially contracted basis set               ... on
Rotationally invariant grid construction     ... off
Angular grids for H and He will be reduced by one unit

Total number of grid points                  ...    17665
Total number of batches                      ...      145
Average number of points per batch           ...      121
Average number of grid points per atom       ...     1178
UseSFitting                                  ... on

GRIDX 3
-------
General Integration Accuracy     IntAcc      ... 4.338
Radial Grid Type                 RadialGrid  ... OptM3 with GC (2021)
Angular Grid (max. ang.)         AngularGrid ... 3 (Lebedev-194)
Angular grid pruning method      GridPruning ... 4 (adaptive)
Weight generation scheme         WeightScheme... mBecke (2022)
Basis function cutoff            BFCut       ... 1.0000e-11
Integration weight cutoff        WCut        ... 1.0000e-14
Partially contracted basis set               ... on
Rotationally invariant grid construction     ... off
Angular grids for H and He will be reduced by one unit

Total number of grid points                  ...    38691
Total number of batches                      ...      309
Average number of points per batch           ...      125
Average number of grid points per atom       ...     2579
UseSFitting                                  ... on
Grids setup in   0.5 sec
Initializing property integral containers    ... done (  0.0 sec)

SHARK setup successfully completed in   0.7 seconds

Maximum memory used throughout the entire STARTUP-calculation: 24.8 MB


           ************************************************************
           *        Program running with 8 parallel MPI-processes     *
           *              working on a common directory               *
           ************************************************************
-------------------------------------------------------------------------------
                                 ORCA GUESS
                   Start orbitals & Density for SCF / CASSCF
-------------------------------------------------------------------------------

------------
SCF SETTINGS
------------
Hamiltonian:
 Density Functional     Method          .... DFT(GTOs)
 Exchange Functional    Exchange        .... PBE
   PBE kappa parameter   XKappa         ....  0.804000
   PBE mue parameter    XMuePBE         ....  0.219520
 Correlation Functional Correlation     .... P86
 LDA part of GGA corr.  LDAOpt          .... VWN-5
 Gradients option       PostSCFGGA      .... off
 Hybrid DFT is turned on
   Fraction HF Exchange ScalHFX         ....  0.690000
   Scaling of DF-GGA-X  ScalDFX         ....  0.310000
   Scaling of DF-GGA-C  ScalDFC         ....  0.422400
   Scaling of DF-LDA-C  ScalLDAC        ....  0.422400
   Perturbative correction              ....  1.000000
 RI-approximation to the Coulomb term is turned on
   Number of AuxJ basis functions       .... 393
   RIJ-COSX (HFX calculated with COS-X)).... on


General Settings:
 Integral files         IntName         .... opt
 Hartree-Fock type      HFTyp           .... UHF
 Total Charge           Charge          ....    0
 Multiplicity           Mult            ....    2
 Number of Electrons    NEL             ....   47
 Basis Dimension        Dim             ....  312
 Nuclear Repulsion      ENuc            ....    231.0921188614 Eh

Convergence Acceleration:
 AO-DIIS                CNVDIIS         .... on
   Start iteration      DIISMaxIt       ....    12
   Startup error        DIISStart       ....  0.200000
   # of expansion vecs  DIISMaxEq       ....     5
   Bias factor          DIISBfac        ....   1.050
   Max. coefficient     DIISMaxC        ....  10.000
 MO-DIIS                CNVKDIIS        .... off
 Trust-Rad. Augm. Hess. CNVTRAH         .... auto
   Auto Start mean grad. ratio tolernc. ....  1.125000
   Auto Start start iteration           ....    50
   Auto Start num. interpolation iter.  ....    10
   Max. Number of Micro iterations      ....    24
   Max. Number of Macro iterations      .... Maxiter - #DIIS iter
   Number of Davidson start vectors     ....     2
   Converg. threshold    (grad. norm)   ....   1.000e-05
   Grad. Scal. Fac. for Micro threshold ....   0.100
   Minimum threshold for Micro iter.    ....   1.000e-02
   NR start threshold (gradient norm)   ....   1.000e-04
   Initial trust radius                 ....   0.400
   Minimum AH scaling param. (alpha)    ....   1.000
   Maximum AH scaling param. (alpha)    .... 1000.000
   Quad. conv. algorithm                .... NR
   White noise on init. David. guess    .... on
   Maximum white noise                  ....   0.010
   Pseudo random numbers                .... off
   Inactive MOs                         .... canonical
   Orbital update algorithm             .... Taylor
   Preconditioner                       .... Diag
   Full preconditioner red. dimension   ....   250
 SOSCF                 CNVSOSCF           .... on
   Start iteration     SOSCFMaxIt         ....   150
   Startup grad/error  SOSCFStart         ....  0.003300
   Hessian update      SOSCFHessUp        .... L-BFGS
   Autom. constraints  SOSCFAutoConstrain .... off
 Level Shifting         CNVShift        .... on
   Level shift para.    LevelShift      ....    0.2500
   Turn off err/grad.   ShiftErr        ....    0.0010
 Zerner damping         CNVZerner       .... off
 Static damping         CNVDamp         .... on
   Fraction old density DampFac         ....    0.7000
   Max. Damping (<1)    DampMax         ....    0.9800
   Min. Damping (>=0)   DampMin         ....    0.0000
   Turn off err/grad.   DampErr         ....    0.1000

SCF Procedure:
 Maximum # iterations   MaxIter         ....   125
 SCF integral mode      SCFMode         .... Direct
   Integral package                     .... SHARK and LIBINT hybrid scheme
 Reset frequency        DirectResetFreq ....    20
 Integral Threshold     Thresh          ....  2.500e-11 Eh
 Primitive CutOff       TCut            ....  2.500e-12 Eh

Convergence Tolerance:
 Convergence Check Mode ConvCheckMode   .... Total+1el-Energy
 Convergence forced     ConvForced      .... 0
 Energy Change          TolE            ....  1.000e-08 Eh
 1-El. energy change                    ....  1.000e-05 Eh
 Orbital Gradient       TolG            ....  1.000e-05
 Orbital Rotation angle TolX            ....  1.000e-05
 DIIS Error             TolErr          ....  5.000e-07

------------------------------
INITIAL GUESS: MODEL POTENTIAL
------------------------------
Loading Hartree-Fock densities                     ... done
Calculating cut-offs                               ... done
Initializing the effective Hamiltonian             ... done
Setting up the integral package (SHARK)            ... done
Starting the Coulomb interaction                   ... done (   0.0 sec)
Making the grid                                    ... done (   0.1 sec)
Mapping shells                                     ... done
Starting the XC term evaluation                    ... done (   0.0 sec)
  promolecular density results
     # of electrons  =     46.991419176
     EX              =    -36.283335518
     EC              =      0.021149743
     EX+EC           =    -36.262185776
Transforming the Hamiltonian                       ... done (   0.0 sec)
Diagonalizing the Hamiltonian                      ... done (   0.0 sec)
Back transforming the eigenvectors                 ... done (   0.0 sec)
Now organizing SCF variables                       ... done
                      ------------------
                      INITIAL GUESS DONE (   0.2 sec)
                      ------------------
             **** ENERGY FILE WAS UPDATED (opt.en.tmp) ****
Finished Guess after   1.7 sec
Maximum memory used throughout the entire GUESS-calculation: 17.8 MB


           ************************************************************
           *        Program running with 8 parallel MPI-processes     *
           *              working on a common directory               *
           ************************************************************

-------------------------------------------------------------------------------------------
                                      ORCA LEAN-SCF
                              memory conserving SCF solver
-------------------------------------------------------------------------------------------

----------------------------------------D-I-I-S--------------------------------------------
Iteration    Energy (Eh)           Delta-E    RMSDP     MaxDP     DIISErr   Damp  Time(sec)
-------------------------------------------------------------------------------------------
               ***  Starting incremental Fock matrix formation  ***
    1    -269.8340500165404592     0.00e+00  1.55e-03  2.34e-02  1.44e-01  0.700   1.4
    2    -269.9181967635604451    -8.41e-02  1.19e-03  2.05e-02  7.56e-02  0.700   0.9
                               ***Turning on AO-DIIS***
    3    -269.9614749968286560    -4.33e-02  5.74e-04  5.88e-03  3.38e-02  0.700   0.8
    4    -269.9886362186053930    -2.72e-02  1.40e-03  1.74e-02  2.63e-02  0.000   0.8
    5    -270.0540684236874540    -6.54e-02  4.30e-04  8.01e-03  1.23e-02  0.000   0.8
    6    -270.0569063276242332    -2.84e-03  4.32e-04  7.99e-03  7.28e-03  0.000   0.8
    7    -270.0589249915224173    -2.02e-03  3.28e-04  6.87e-03  7.18e-03  0.000   0.8
    8    -270.0602483029879295    -1.32e-03  2.76e-04  4.58e-03  3.34e-03  0.000   0.8
                              *** Initializing SOSCF ***
---------------------------------------S-O-S-C-F--------------------------------------
Iteration    Energy (Eh)           Delta-E    RMSDP     MaxDP     MaxGrad    Time(sec)
--------------------------------------------------------------------------------------
    9    -270.0609305630523522    -6.82e-04  1.96e-04  2.49e-03  2.54e-03     0.8
               *** Restarting incremental Fock matrix formation ***
   10    -270.0612901049785251    -3.60e-04  1.14e-04  1.58e-03  3.96e-03     1.3
   11    -270.0614023609313108    -1.12e-04  2.46e-04  3.02e-03  1.46e-03     1.1
   12    -270.0614827580153587    -8.04e-05  4.92e-05  6.86e-04  7.32e-04     1.2
   13    -270.0614998680093777    -1.71e-05  2.61e-05  3.26e-04  4.51e-04     1.1
   14    -270.0615030489695982    -3.18e-06  1.12e-05  2.23e-04  1.46e-04     1.1
   15    -270.0615038754177704    -8.26e-07  5.74e-06  8.14e-05  8.51e-05     1.0
   16    -270.0615040590048466    -1.84e-07  5.27e-06  7.77e-05  5.37e-05     1.0
   17    -270.0615041903974998    -1.31e-07  3.40e-06  5.30e-05  3.77e-05     1.0
   18    -270.0615042549784448    -6.46e-08  2.46e-06  3.70e-05  2.28e-05     1.0
   19    -270.0615042822037140    -2.72e-08  1.47e-06  2.50e-05  1.16e-05     0.9
   20    -270.0615042880654073    -5.86e-09  9.90e-07  2.26e-05  6.75e-06     0.9
                 **** Energy Check signals convergence ****

               *****************************************************
               *                     SUCCESS                       *
               *           SCF CONVERGED AFTER  20 CYCLES          *
               *****************************************************

Recomputing exchange energy using gridx3       ... done (    1.946 sec)
Old exchange energy                            :    -25.691364700 Eh
New exchange energy                            :    -25.691455883 Eh
Exchange energy change after final integration :     -0.000091183 Eh
Total energy after final integration           :   -270.061595467 Eh
             **** ENERGY FILE WAS UPDATED (opt.en.tmp) ****

----------------
TOTAL SCF ENERGY
----------------

Total Energy       :       -270.06159546704851 Eh           -7348.74962 eV

Components:
Nuclear Repulsion  :        231.09211886142967 Eh            6288.33625 eV
Electronic Energy  :       -501.15362314542517 Eh          -13637.08338 eV
One Electron Energy:       -823.72238365894350 Eh          -22414.62560 eV
Two Electron Energy:        322.56876051351833 Eh            8777.54222 eV

Virial components:
Potential Energy   :       -539.13056234771386 Eh          -14670.48843 eV
Kinetic Energy     :        269.06896688066536 Eh            7321.73882 eV
Virial Ratio       :          2.00368912326788

DFT components:
N(Alpha)           :       24.000009612788 electrons
N(Beta)            :       23.000016112620 electrons
N(Total)           :       47.000025725408 electrons
E(X)               :      -11.494773949845 Eh       
E(C)               :       -0.711275913345 Eh       
E(XC)              :      -12.206049863189 Eh       

---------------
SCF CONVERGENCE
---------------

  Last Energy change         ...    5.8617e-09  Tolerance :   1.0000e-08
  Last MAX-Density change    ...    2.2615e-05  Tolerance :   1.0000e-07
  Last RMS-Density change    ...    9.8965e-07  Tolerance :   5.0000e-09
  Last DIIS Error            ...    2.5450e-03  Tolerance :   5.0000e-07
  Last Orbital Gradient      ...    6.7525e-06  Tolerance :   1.0000e-05
  Last Orbital Rotation      ...    6.7366e-05  Tolerance :   1.0000e-05


----------------------
UHF SPIN CONTAMINATION
----------------------

Warning: in a DFT calculation there is little theoretical justification to 
         calculate <S**2> as in Hartree-Fock theory. We will do it anyways
         but you should keep in mind that the values have only limited relevance

Expectation value of <S**2>     :     0.826695
Ideal value S*(S+1) for S=0.5   :     0.750000
Deviation                       :     0.076695

----------------
ORBITAL ENERGIES
----------------
                 SPIN UP ORBITALS
  NO   OCC          E(Eh)            E(eV) 
   0   1.0000     -20.042434      -545.3824 
   1   1.0000     -10.838729      -294.9368 
   2   1.0000     -10.825794      -294.5848 
   3   1.0000     -10.822436      -294.4935 
   4   1.0000     -10.820761      -294.4479 
   5   1.0000     -10.820009      -294.4274 
   6   1.0000      -1.172815       -31.9139 
   7   1.0000      -1.043327       -28.3904 
   8   1.0000      -0.885856       -24.1054 
   9   1.0000      -0.876395       -23.8479 
  10   1.0000      -0.722880       -19.6706 
  11   1.0000      -0.664300       -18.0765 
  12   1.0000      -0.624878       -17.0038 
  13   1.0000      -0.603371       -16.4186 
  14   1.0000      -0.557923       -15.1818 
  15   1.0000      -0.522578       -14.2201 
  16   1.0000      -0.490103       -13.3364 
  17   1.0000      -0.474782       -12.9195 
  18   1.0000      -0.458655       -12.4806 
  19   1.0000      -0.454980       -12.3806 
  20   1.0000      -0.441214       -12.0060 
  21   1.0000      -0.431185       -11.7331 
  22   1.0000      -0.401058       -10.9133 
  23   1.0000      -0.304497        -8.2858 
  24   0.0000       0.069012         1.8779 
  25   0.0000       0.094433         2.5696 
  26   0.0000       0.113405         3.0859 
  27   0.0000       0.133855         3.6424 
  28   0.0000       0.139227         3.7886 
  29   0.0000       0.156506         4.2587 
  30   0.0000       0.167660         4.5623 
  31   0.0000       0.169145         4.6027 
  32   0.0000       0.197918         5.3856 
  33   0.0000       0.218310         5.9405 
  34   0.0000       0.245284         6.6745 

                 SPIN DOWN ORBITALS
  NO   OCC          E(Eh)            E(eV) 
   0   1.0000     -20.015311      -544.6443 
   1   1.0000     -10.827939      -294.6432 
   2   1.0000     -10.825947      -294.5890 
   3   1.0000     -10.823011      -294.5091 
   4   1.0000     -10.820536      -294.4418 
   5   1.0000     -10.819727      -294.4197 
   6   1.0000      -1.085427       -29.5360 
   7   1.0000      -1.034787       -28.1580 
   8   1.0000      -0.880205       -23.9516 
   9   1.0000      -0.863955       -23.5094 
  10   1.0000      -0.709312       -19.3014 
  11   1.0000      -0.657423       -17.8894 
  12   1.0000      -0.622325       -16.9343 
  13   1.0000      -0.578456       -15.7406 
  14   1.0000      -0.508478       -13.8364 
  15   1.0000      -0.488637       -13.2965 
  16   1.0000      -0.481221       -13.0947 
  17   1.0000      -0.455382       -12.3916 
  18   1.0000      -0.450489       -12.2584 
  19   1.0000      -0.442064       -12.0292 
  20   1.0000      -0.435474       -11.8499 
  21   1.0000      -0.402916       -10.9639 
  22   1.0000      -0.321686        -8.7535 
  23   0.0000      -0.011106        -0.3022 
  24   0.0000       0.074520         2.0278 
  25   0.0000       0.104087         2.8323 
  26   0.0000       0.115336         3.1385 
  27   0.0000       0.135442         3.6856 
  28   0.0000       0.139677         3.8008 
  29   0.0000       0.158113         4.3025 
  30   0.0000       0.168774         4.5926 
  31   0.0000       0.172247         4.6871 
  32   0.0000       0.199152         5.4192 
  33   0.0000       0.222949         6.0667 
*Only the first 10 virtual orbitals were printed.

                    ********************************
                    * MULLIKEN POPULATION ANALYSIS *
                    ********************************

--------------------------------------------
MULLIKEN ATOMIC CHARGES AND SPIN POPULATIONS
--------------------------------------------
   0 C :   -0.170060   -0.286200
   1 C :   -0.152718    0.344906
   2 H :    0.116539    0.017363
   3 C :   -0.098466   -0.036948
   4 H :    0.109914   -0.024393
   5 C :   -0.148605   -0.029295
   6 H :    0.063920    0.017344
   7 H :    0.079174    0.010701
   8 C :   -0.058995    0.448934
   9 H :    0.094684    0.007387
  10 H :    0.077974    0.020608
  11 H :    0.155460   -0.138186
  12 H :    0.096307   -0.008717
  13 O :   -0.421533    0.711918
  14 H :    0.256406   -0.055422
Sum of atomic charges         :    0.0000000
Sum of atomic spin populations:    1.0000000

-----------------------------------------------------
MULLIKEN REDUCED ORBITAL CHARGES AND SPIN POPULATIONS
-----------------------------------------------------
CHARGE
  0 C s       :     3.187951  s :     3.187951
      pz      :     0.963147  p :     2.864742
      px      :     0.921962
      py      :     0.979634
      dz2     :     0.022947  d :     0.109375
      dxz     :     0.012013
      dyz     :     0.022653
      dx2y2   :     0.026758
      dxy     :     0.025005
      f0      :     0.000957  f :     0.007992
      f+1     :     0.001230
      f-1     :     0.000920
      f+2     :     0.001092
      f-2     :     0.001402
      f+3     :     0.000954
      f-3     :     0.001437

  1 C s       :     3.168645  s :     3.168645
      pz      :     0.946754  p :     2.867607
      px      :     0.978848
      py      :     0.942005
      dz2     :     0.022407  d :     0.108584
      dxz     :     0.012314
      dyz     :     0.025822
      dx2y2   :     0.022740
      dxy     :     0.025300
      f0      :     0.001076  f :     0.007883
      f+1     :     0.001271
      f-1     :     0.000738
      f+2     :     0.001396
      f-2     :     0.001232
      f+3     :     0.001234
      f-3     :     0.000935

  2 H s       :     0.846315  s :     0.846315
      pz      :     0.010054  p :     0.035235
      px      :     0.008910
      py      :     0.016271
      dz2     :     0.000289  d :     0.001912
      dxz     :     0.000086
      dyz     :     0.000533
      dx2y2   :     0.000445
      dxy     :     0.000560

  3 C s       :     3.102354  s :     3.102354
      pz      :     0.962685  p :     2.879480
      px      :     1.023901
      py      :     0.892894
      dz2     :     0.029170  d :     0.110542
      dxz     :     0.015060
      dyz     :     0.019771
      dx2y2   :     0.023646
      dxy     :     0.022896
      f0      :     0.000686  f :     0.006090
      f+1     :     0.000981
      f-1     :     0.000939
      f+2     :     0.001036
      f-2     :     0.000591
      f+3     :     0.000908
      f-3     :     0.000949

  4 H s       :     0.851409  s :     0.851409
      pz      :     0.010706  p :     0.036744
      px      :     0.012021
      py      :     0.014017
      dz2     :     0.000437  d :     0.001934
      dxz     :     0.000314
      dyz     :     0.000271
      dx2y2   :     0.000586
      dxy     :     0.000327

  5 C s       :     3.129781  s :     3.129781
      pz      :     0.962879  p :     2.907889
      px      :     0.973237
      py      :     0.971773
      dz2     :     0.018062  d :     0.104833
      dxz     :     0.026489
      dyz     :     0.017711
      dx2y2   :     0.014331
      dxy     :     0.028240
      f0      :     0.000740  f :     0.006102
      f+1     :     0.000894
      f-1     :     0.000743
      f+2     :     0.000733
      f-2     :     0.001232
      f+3     :     0.000929
      f-3     :     0.000831

  6 H s       :     0.894733  s :     0.894733
      pz      :     0.020094  p :     0.039260
      px      :     0.009955
      py      :     0.009211
      dz2     :     0.000685  d :     0.002087
      dxz     :     0.000506
      dyz     :     0.000608
      dx2y2   :     0.000163
      dxy     :     0.000124

  7 H s       :     0.878506  s :     0.878506
      pz      :     0.009249  p :     0.040217
      px      :     0.019800
      py      :     0.011168
      dz2     :     0.000141  d :     0.002103
      dxz     :     0.000670
      dyz     :     0.000080
      dx2y2   :     0.000597
      dxy     :     0.000615

  8 C s       :     3.130728  s :     3.130728
      pz      :     1.000270  p :     2.812997
      px      :     0.921481
      py      :     0.891246
      dz2     :     0.025639  d :     0.108861
      dxz     :     0.018671
      dyz     :     0.017668
      dx2y2   :     0.025771
      dxy     :     0.021113
      f0      :     0.000823  f :     0.006409
      f+1     :     0.000729
      f-1     :     0.000778
      f+2     :     0.000622
      f-2     :     0.001038
      f+3     :     0.001172
      f-3     :     0.001249

  9 H s       :     0.862372  s :     0.862372
      pz      :     0.009808  p :     0.040860
      px      :     0.013413
      py      :     0.017638
      dz2     :     0.000190  d :     0.002084
      dxz     :     0.000296
      dyz     :     0.000480
      dx2y2   :     0.000649
      dxy     :     0.000468

 10 H s       :     0.882206  s :     0.882206
      pz      :     0.014692  p :     0.037732
      px      :     0.012594
      py      :     0.010446
      dz2     :     0.000597  d :     0.002088
      dxz     :     0.000422
      dyz     :     0.000410
      dx2y2   :     0.000281
      dxy     :     0.000378

 11 H s       :     0.774502  s :     0.774502
      pz      :     0.018437  p :     0.065525
      px      :     0.032157
      py      :     0.014931
      dz2     :     0.000612  d :     0.004513
      dxz     :     0.001628
      dyz     :     0.000454
      dx2y2   :     0.001061
      dxy     :     0.000759

 12 H s       :     0.861837  s :     0.861837
      pz      :     0.019478  p :     0.039714
      px      :     0.011169
      py      :     0.009067
      dz2     :     0.000629  d :     0.002141
      dxz     :     0.000641
      dyz     :     0.000685
      dx2y2   :     0.000058
      dxy     :     0.000129

 13 O s       :     3.901326  s :     3.901326
      pz      :     1.248417  p :     4.505267
      px      :     1.314597
      py      :     1.942253
      dz2     :     0.000684  d :     0.014404
      dxz     :     0.009267
      dyz     :     0.000368
      dx2y2   :     0.002980
      dxy     :     0.001105
      f0      :     0.000009  f :     0.000536
      f+1     :     0.000132
      f-1     :     0.000043
      f+2     :     0.000188
      f-2     :     0.000031
      f+3     :     0.000081
      f-3     :     0.000052

 14 H s       :     0.682756  s :     0.682756
      pz      :     0.017336  p :     0.056059
      px      :     0.016720
      py      :     0.022003
      dz2     :     0.000946  d :     0.004779
      dxz     :     0.001466
      dyz     :     0.001122
      dx2y2   :     0.000538
      dxy     :     0.000706


SPIN
  0 C s       :    -0.033688  s :    -0.033688
      pz      :    -0.120022  p :    -0.262114
      px      :    -0.111258
      py      :    -0.030833
      dz2     :     0.005158  d :     0.008420
      dxz     :     0.000497
      dyz     :     0.000751
      dx2y2   :     0.003172
      dxy     :    -0.001158
      f0      :     0.000273  f :     0.001181
      f+1     :     0.000233
      f-1     :     0.000105
      f+2     :     0.000129
      f-2     :     0.000116
      f+3     :     0.000065
      f-3     :     0.000261

  1 C s       :     0.035092  s :     0.035092
      pz      :     0.150952  p :     0.312653
      px      :     0.136921
      py      :     0.024779
      dz2     :    -0.002066  d :    -0.001996
      dxz     :    -0.000999
      dyz     :     0.000741
      dx2y2   :    -0.000521
      dxy     :     0.000850
      f0      :    -0.000191  f :    -0.000843
      f+1     :    -0.000295
      f-1     :    -0.000029
      f+2     :    -0.000105
      f-2     :    -0.000143
      f+3     :    -0.000028
      f-3     :    -0.000053

  2 H s       :     0.019817  s :     0.019817
      pz      :    -0.001267  p :    -0.002291
      px      :    -0.001073
      py      :     0.000048
      dz2     :    -0.000016  d :    -0.000163
      dxz     :    -0.000003
      dyz     :    -0.000067
      dx2y2   :    -0.000004
      dxy     :    -0.000073

  3 C s       :    -0.008834  s :    -0.008834
      pz      :    -0.009970  p :    -0.033922
      px      :    -0.008577
      py      :    -0.015375
      dz2     :     0.000899  d :     0.005467
      dxz     :     0.000926
      dyz     :     0.001653
      dx2y2   :    -0.000145
      dxy     :     0.002134
      f0      :     0.000045  f :     0.000340
      f+1     :     0.000022
      f-1     :     0.000023
      f+2     :     0.000085
      f-2     :     0.000006
      f+3     :     0.000138
      f-3     :     0.000020

  4 H s       :    -0.027368  s :    -0.027368
      pz      :     0.001192  p :     0.002749
      px      :     0.001575
      py      :    -0.000019
      dz2     :     0.000085  d :     0.000225
      dxz     :    -0.000009
      dyz     :     0.000053
      dx2y2   :     0.000055
      dxy     :     0.000042

  5 C s       :    -0.004976  s :    -0.004976
      pz      :    -0.010423  p :    -0.029468
      px      :    -0.008890
      py      :    -0.010156
      dz2     :    -0.000472  d :     0.004742
      dxz     :     0.001013
      dyz     :     0.001969
      dx2y2   :     0.001451
      dxy     :     0.000782
      f0      :     0.000006  f :     0.000408
      f+1     :     0.000061
      f-1     :     0.000073
      f+2     :     0.000095
      f-2     :     0.000040
      f+3     :     0.000022
      f-3     :     0.000110

  6 H s       :     0.017155  s :     0.017155
      pz      :     0.000204  p :     0.000181
      px      :     0.000018
      py      :    -0.000041
      dz2     :     0.000007  d :     0.000008
      dxz     :     0.000002
      dyz     :    -0.000002
      dx2y2   :     0.000001
      dxy     :    -0.000000

  7 H s       :     0.010790  s :     0.010790
      pz      :    -0.000026  p :    -0.000094
      px      :     0.000018
      py      :    -0.000086
      dz2     :     0.000002  d :     0.000004
      dxz     :     0.000001
      dyz     :    -0.000000
      dx2y2   :     0.000006
      dxy     :    -0.000004

  8 C s       :     0.043189  s :     0.043189
      pz      :     0.121574  p :     0.411070
      px      :     0.256684
      py      :     0.032813
      dz2     :    -0.001285  d :    -0.004766
      dxz     :    -0.001354
      dyz     :    -0.000322
      dx2y2   :    -0.000853
      dxy     :    -0.000952
      f0      :    -0.000006  f :    -0.000559
      f+1     :    -0.000207
      f-1     :    -0.000046
      f+2     :     0.000011
      f-2     :    -0.000180
      f+3     :    -0.000080
      f-3     :    -0.000050

  9 H s       :     0.007129  s :     0.007129
      pz      :     0.000032  p :     0.000252
      px      :    -0.000096
      py      :     0.000316
      dz2     :     0.000001  d :     0.000005
      dxz     :    -0.000003
      dyz     :     0.000002
      dx2y2   :    -0.000002
      dxy     :     0.000006

 10 H s       :     0.020150  s :     0.020150
      pz      :     0.000221  p :     0.000439
      px      :     0.000097
      py      :     0.000120
      dz2     :     0.000011  d :     0.000019
      dxz     :     0.000005
      dyz     :     0.000002
      dx2y2   :    -0.000002
      dxy     :     0.000003

 11 H s       :    -0.153116  s :    -0.153116
      pz      :     0.005608  p :     0.014354
      px      :     0.009290
      py      :    -0.000545
      dz2     :     0.000020  d :     0.000576
      dxz     :     0.000322
      dyz     :     0.000015
      dx2y2   :     0.000215
      dxy     :     0.000004

 12 H s       :    -0.013256  s :    -0.013256
      pz      :     0.000970  p :     0.004196
      px      :     0.003225
      py      :     0.000001
      dz2     :     0.000092  d :     0.000343
      dxz     :     0.000196
      dyz     :     0.000016
      dx2y2   :     0.000035
      dxy     :     0.000004

 13 O s       :     0.010939  s :     0.010939
      pz      :     0.292296  p :     0.702026
      px      :     0.405825
      py      :     0.003905
      dz2     :     0.000207  d :    -0.001059
      dxz     :    -0.001015
      dyz     :    -0.000009
      dx2y2   :    -0.000324
      dxy     :     0.000081
      f0      :     0.000013  f :     0.000012
      f+1     :    -0.000093
      f-1     :     0.000014
      f+2     :     0.000022
      f-2     :    -0.000011
      f+3     :     0.000036
      f-3     :     0.000032

 14 H s       :    -0.056716  s :    -0.056716
      pz      :     0.001133  p :     0.000972
      px      :     0.001138
      py      :    -0.001298
      dz2     :     0.000285  d :     0.000323
      dxz     :    -0.000074
      dyz     :    -0.000030
      dx2y2   :     0.000161
      dxy     :    -0.000019



                     *******************************
                     * LOEWDIN POPULATION ANALYSIS *
                     *******************************

-------------------------------------------
LOEWDIN ATOMIC CHARGES AND SPIN POPULATIONS
-------------------------------------------
   0 C :   -0.021707   -0.116765
   1 C :   -0.005963    0.183755
   2 H :    0.016723   -0.008541
   3 C :   -0.018606    0.012280
   4 H :    0.006877    0.011510
   5 C :    0.002256    0.008824
   6 H :    0.017008    0.009004
   7 H :    0.012668    0.005166
   8 C :    0.025643    0.228432
   9 H :    0.007583    0.001933
  10 H :    0.024517    0.010222
  11 H :   -0.074983    0.062058
  12 H :    0.016070    0.017530
  13 O :   -0.058732    0.595751
  14 H :    0.050645   -0.021159

----------------------------------------------------
LOEWDIN REDUCED ORBITAL CHARGES AND SPIN POPULATIONS
----------------------------------------------------
CHARGE
  0 C s       :     2.736268  s :     2.736268
      pz      :     0.940740  p :     2.843151
      px      :     0.932046
      py      :     0.970365
      dz2     :     0.069760  d :     0.397765
      dxz     :     0.053712
      dyz     :     0.084220
      dx2y2   :     0.106681
      dxy     :     0.083393
      f0      :     0.004875  f :     0.044523
      f+1     :     0.005012
      f-1     :     0.005721
      f+2     :     0.005778
      f-2     :     0.008412
      f+3     :     0.006027
      f-3     :     0.008699

  1 C s       :     2.734669  s :     2.734669
      pz      :     0.931385  p :     2.826279
      px      :     0.936865
      py      :     0.958029
      dz2     :     0.064109  d :     0.401087
      dxz     :     0.054212
      dyz     :     0.100824
      dx2y2   :     0.078654
      dxy     :     0.103289
      f0      :     0.005167  f :     0.043927
      f+1     :     0.005006
      f-1     :     0.004658
      f+2     :     0.007968
      f-2     :     0.006797
      f+3     :     0.008485
      f-3     :     0.005846

  2 H s       :     0.813239  s :     0.813239
      pz      :     0.039356  p :     0.144140
      px      :     0.035432
      py      :     0.069352
      dz2     :     0.003677  d :     0.025899
      dxz     :     0.000965
      dyz     :     0.007280
      dx2y2   :     0.007227
      dxy     :     0.006751

  3 C s       :     2.690241  s :     2.690241
      pz      :     0.956477  p :     2.881695
      px      :     0.981812
      py      :     0.943406
      dz2     :     0.099716  d :     0.404022
      dxz     :     0.063099
      dyz     :     0.072619
      dx2y2   :     0.088319
      dxy     :     0.080269
      f0      :     0.004857  f :     0.042647
      f+1     :     0.006489
      f-1     :     0.006413
      f+2     :     0.007423
      f-2     :     0.005026
      f+3     :     0.006432
      f-3     :     0.006007

  4 H s       :     0.817142  s :     0.817142
      pz      :     0.045721  p :     0.149010
      px      :     0.049440
      py      :     0.053849
      dz2     :     0.004999  d :     0.026971
      dxz     :     0.004560
      dyz     :     0.005115
      dx2y2   :     0.006560
      dxy     :     0.005738

  5 C s       :     2.692707  s :     2.692707
      pz      :     0.953517  p :     2.869454
      px      :     0.962620
      py      :     0.953317
      dz2     :     0.067184  d :     0.394006
      dxz     :     0.096351
      dyz     :     0.069260
      dx2y2   :     0.058319
      dxy     :     0.102892
      f0      :     0.005588  f :     0.041576
      f+1     :     0.005104
      f-1     :     0.006138
      f+2     :     0.005979
      f-2     :     0.005580
      f+3     :     0.007028
      f-3     :     0.006159

  6 H s       :     0.809140  s :     0.809140
      pz      :     0.062949  p :     0.146262
      px      :     0.043667
      py      :     0.039647
      dz2     :     0.009103  d :     0.027590
      dxz     :     0.007561
      dyz     :     0.007279
      dx2y2   :     0.002155
      dxy     :     0.001491

  7 H s       :     0.809337  s :     0.809337
      pz      :     0.038603  p :     0.148972
      px      :     0.067008
      py      :     0.043361
      dz2     :     0.002530  d :     0.029022
      dxz     :     0.008656
      dyz     :     0.000994
      dx2y2   :     0.008642
      dxy     :     0.008200

  8 C s       :     2.714381  s :     2.714381
      pz      :     0.962198  p :     2.808484
      px      :     0.888433
      py      :     0.957854
      dz2     :     0.082732  d :     0.408906
      dxz     :     0.077311
      dyz     :     0.064850
      dx2y2   :     0.096988
      dxy     :     0.087025
      f0      :     0.003913  f :     0.042586
      f+1     :     0.003517
      f-1     :     0.005381
      f+2     :     0.006813
      f-2     :     0.007805
      f+3     :     0.006277
      f-3     :     0.008881

  9 H s       :     0.809738  s :     0.809738
      pz      :     0.042396  p :     0.152738
      px      :     0.050627
      py      :     0.059715
      dz2     :     0.003198  d :     0.029941
      dxz     :     0.004131
      dyz     :     0.006048
      dx2y2   :     0.008759
      dxy     :     0.007806

 10 H s       :     0.802848  s :     0.802848
      pz      :     0.054328  p :     0.144711
      px      :     0.050927
      py      :     0.039456
      dz2     :     0.007246  d :     0.027925
      dxz     :     0.006993
      dyz     :     0.005136
      dx2y2   :     0.003675
      dxy     :     0.004875

 11 H s       :     0.687751  s :     0.687751
      pz      :     0.110628  p :     0.345948
      px      :     0.185142
      py      :     0.050178
      dz2     :     0.006901  d :     0.041285
      dxz     :     0.015364
      dyz     :     0.003671
      dx2y2   :     0.008007
      dxy     :     0.007342

 12 H s       :     0.807321  s :     0.807321
      pz      :     0.071051  p :     0.149000
      px      :     0.041861
      py      :     0.036089
      dz2     :     0.009963  d :     0.027608
      dxz     :     0.008431
      dyz     :     0.007389
      dx2y2   :     0.000639
      dxy     :     0.001186

 13 O s       :     3.581469  s :     3.581469
      pz      :     1.256607  p :     4.449739
      px      :     1.321887
      py      :     1.871245
      dz2     :     0.002000  d :     0.026423
      dxz     :     0.018322
      dyz     :     0.000478
      dx2y2   :     0.005165
      dxy     :     0.000457
      f0      :     0.000064  f :     0.001101
      f+1     :     0.000457
      f-1     :     0.000023
      f+2     :     0.000394
      f-2     :     0.000062
      f+3     :     0.000083
      f-3     :     0.000019

 14 H s       :     0.683098  s :     0.683098
      pz      :     0.079766  p :     0.217837
      px      :     0.076525
      py      :     0.061546
      dz2     :     0.009642  d :     0.048420
      dxz     :     0.018213
      dyz     :     0.009335
      dx2y2   :     0.005172
      dxy     :     0.006057


SPIN
  0 C s       :    -0.007573  s :    -0.007573
      pz      :    -0.078424  p :    -0.158438
      px      :    -0.070726
      py      :    -0.009288
      dz2     :     0.021004  d :     0.043107
      dxz     :     0.001128
      dyz     :     0.005152
      dx2y2   :     0.011397
      dxy     :     0.004426
      f0      :     0.001447  f :     0.006139
      f+1     :     0.000982
      f-1     :     0.000689
      f+2     :     0.000520
      f-2     :     0.000249
      f+3     :     0.000523
      f-3     :     0.001729

  1 C s       :     0.007570  s :     0.007570
      pz      :     0.098117  p :     0.196849
      px      :     0.090327
      py      :     0.008405
      dz2     :    -0.010956  d :    -0.017640
      dxz     :    -0.001727
      dyz     :     0.000159
      dx2y2   :    -0.003531
      dxy     :    -0.001584
      f0      :    -0.001015  f :    -0.003023
      f+1     :    -0.000998
      f-1     :    -0.000166
      f+2     :    -0.000190
      f-2     :    -0.000216
      f+3     :    -0.000191
      f-3     :    -0.000246

  2 H s       :     0.005785  s :     0.005785
      pz      :    -0.005476  p :    -0.012045
      px      :    -0.004613
      py      :    -0.001956
      dz2     :    -0.000309  d :    -0.002282
      dxz     :    -0.000029
      dyz     :    -0.000904
      dx2y2   :    -0.000125
      dxy     :    -0.000915

  3 C s       :    -0.001199  s :    -0.001199
      pz      :    -0.001287  p :    -0.008396
      px      :    -0.001529
      py      :    -0.005580
      dz2     :     0.003578  d :     0.019740
      dxz     :     0.002265
      dyz     :     0.006031
      dx2y2   :     0.000578
      dxy     :     0.007288
      f0      :     0.000303  f :     0.002135
      f+1     :     0.000074
      f-1     :     0.000181
      f+2     :     0.000547
      f-2     :     0.000045
      f+3     :     0.000818
      f-3     :     0.000168

  4 H s       :    -0.007391  s :    -0.007391
      pz      :     0.007677  p :     0.015922
      px      :     0.007040
      py      :     0.001205
      dz2     :     0.001064  d :     0.002979
      dxz     :     0.000036
      dyz     :     0.000724
      dx2y2   :     0.000661
      dxy     :     0.000493

  5 C s       :    -0.001388  s :    -0.001388
      pz      :    -0.003052  p :    -0.010527
      px      :    -0.003054
      py      :    -0.004422
      dz2     :     0.000948  d :     0.018270
      dxz     :     0.001824
      dyz     :     0.005959
      dx2y2   :     0.004413
      dxy     :     0.005127
      f0      :     0.000048  f :     0.002469
      f+1     :     0.000429
      f-1     :     0.000451
      f+2     :     0.000538
      f-2     :     0.000138
      f+3     :     0.000123
      f-3     :     0.000742

  6 H s       :     0.009412  s :     0.009412
      pz      :    -0.000005  p :    -0.000252
      px      :    -0.000114
      py      :    -0.000133
      dz2     :    -0.000014  d :    -0.000156
      dxz     :    -0.000036
      dyz     :    -0.000082
      dx2y2   :    -0.000006
      dxy     :    -0.000018

  7 H s       :     0.005933  s :     0.005933
      pz      :    -0.000283  p :    -0.000622
      px      :    -0.000097
      py      :    -0.000242
      dz2     :    -0.000006  d :    -0.000144
      dxz     :    -0.000014
      dyz     :    -0.000011
      dx2y2   :    -0.000032
      dxy     :    -0.000081

  8 C s       :     0.016141  s :     0.016141
      pz      :     0.078280  p :     0.247360
      px      :     0.155794
      py      :     0.013285
      dz2     :    -0.002675  d :    -0.031945
      dxz     :    -0.010832
      dyz     :    -0.004210
      dx2y2   :    -0.009101
      dxy     :    -0.005128
      f0      :    -0.000124  f :    -0.003124
      f+1     :    -0.000357
      f-1     :    -0.000321
      f+2     :    -0.000989
      f-2     :    -0.000355
      f+3     :    -0.000457
      f-3     :    -0.000521

  9 H s       :     0.003282  s :     0.003282
      pz      :    -0.000123  p :    -0.001136
      px      :    -0.000346
      py      :    -0.000666
      dz2     :    -0.000018  d :    -0.000213
      dxz     :    -0.000007
      dyz     :    -0.000045
      dx2y2   :    -0.000140
      dxy     :    -0.000003

 10 H s       :     0.010187  s :     0.010187
      pz      :    -0.000110  p :     0.000176
      px      :     0.000201
      py      :     0.000085
      dz2     :    -0.000017  d :    -0.000141
      dxz     :    -0.000040
      dyz     :    -0.000032
      dx2y2   :    -0.000017
      dxy     :    -0.000035

 11 H s       :    -0.055370  s :    -0.055370
      pz      :     0.040024  p :     0.109711
      px      :     0.070312
      py      :    -0.000624
      dz2     :     0.000790  d :     0.007716
      dxz     :     0.004791
      dyz     :     0.000084
      dx2y2   :     0.001854
      dxy     :     0.000197

 12 H s       :    -0.005728  s :    -0.005728
      pz      :     0.006393  p :     0.019348
      px      :     0.012376
      py      :     0.000579
      dz2     :     0.001244  d :     0.003910
      dxz     :     0.002152
      dyz     :     0.000218
      dx2y2   :     0.000276
      dxy     :     0.000020

 13 O s       :     0.009357  s :     0.009357
      pz      :     0.237912  p :     0.589284
      px      :     0.346844
      py      :     0.004528
      dz2     :    -0.000277  d :    -0.002718
      dxz     :    -0.001788
      dyz     :    -0.000059
      dx2y2   :    -0.000587
      dxy     :    -0.000006
      f0      :    -0.000005  f :    -0.000173
      f+1     :    -0.000132
      f-1     :    -0.000005
      f+2     :    -0.000051
      f-2     :     0.000012
      f+3     :     0.000013
      f-3     :    -0.000005

 14 H s       :    -0.038273  s :    -0.038273
      pz      :     0.006177  p :     0.010865
      px      :     0.006755
      py      :    -0.002067
      dz2     :     0.003821  d :     0.006249
      dxz     :     0.000698
      dyz     :     0.000153
      dx2y2   :     0.001487
      dxy     :     0.000089



[...]
          MAX step            0.0754029947            0.0040000000      NO
          -------------------------------------------------------------------------
          ........................................................
          Max(Bonds)      0.0155      Max(Angles)    1.66
          Max(Dihed)        4.32      Max(Improp)    0.00
          ---------------------------------------------------------------------

The optimization has not yet converged - more geometry cycles are needed


    ---------------------------------------------------------------------------
                         Redundant Internal Coordinates
                            (Angstroem and degrees)

        Definition                    Value    dE/dq     Step     New-Value
    ----------------------------------------------------------------------------
     1. B(C   1,C   0)                1.3838 -0.000120  0.0000    1.3839   
     2. B(H   2,C   0)                1.0827  0.000149 -0.0002    1.0826   
     3. B(C   3,C   1)                1.5046 -0.000043  0.0003    1.5049   
     4. B(H   4,C   1)                1.0803 -0.000275 -0.0000    1.0803   
     5. B(C   5,C   3)                1.5520  0.000012 -0.0000    1.5520   
     6. B(H   6,C   3)                1.0938 -0.000264  0.0009    1.0947   
     7. B(H   7,C   3)                1.0939 -0.000060  0.0000    1.0939   
     8. B(C   8,C   5)                1.5053 -0.000059 -0.0003    1.5050   
     9. B(C   8,C   0)                1.3839 -0.000041  0.0002    1.3841   
    10. B(H   9,C   5)                1.0937  0.000156 -0.0001    1.0936   
    11. B(H  10,C   5)                1.0952  0.000281  0.0001    1.0953   
    12. B(H  11,C   8)                2.4711  0.000013 -0.0012    2.4698   
    13. B(H  11,C   5)                2.8159 -0.000092  0.0079    2.8237   
    14. B(H  11,C   0)                2.6170 -0.000092 -0.0113    2.6057   
    15. B(H  11,H   9)                2.5866 -0.000070  0.0155    2.6022   
    16. B(H  12,C   8)                1.0797 -0.000435  0.0041    1.0838   
    17. B(H  12,H  11)                2.9176 -0.000186 -0.0002    2.9173   
    18. B(O  13,H  11)                0.9624 -0.000447 -0.0008    0.9616   
    19. B(H  14,O  13)                0.9592 -0.000323 -0.0001    0.9592   
    20. B(H  14,H   6)                2.8523 -0.000009  0.0119    2.8641   
    21. A(C   8,C   0,H  11)           68.47  0.000038    0.36     68.83   
    22. A(H   2,C   0,H  11)          108.84 -0.000003   -0.49    108.36   
    23. A(H   2,C   0,C   8)          124.41 -0.000019   -0.12    124.30   
    24. A(C   1,C   0,C   8)          111.12 -0.000035    0.04    111.16   
    25. A(C   1,C   0,H  11)           90.03 -0.000082    0.04     90.07   
    26. A(C   1,C   0,H   2)          124.47  0.000054    0.08    124.55   
    27. A(C   3,C   1,H   4)          124.10 -0.000085    0.01    124.10   
    28. A(C   0,C   1,H   4)          125.49 -0.000054    0.01    125.51   
    29. A(C   0,C   1,C   3)          110.41  0.000138   -0.02    110.39   
    30. A(C   5,C   3,H   6)          111.41  0.000065    0.02    111.42   
    31. A(H   6,C   3,H   7)          106.52 -0.000078    0.03    106.55   
    32. A(C   1,C   3,H   6)          111.37  0.000081   -0.05    111.32   
    33. A(C   1,C   3,C   5)          104.02 -0.000154   -0.02    104.00   
    34. A(C   5,C   3,H   7)          112.05  0.000034   -0.02    112.03   
    35. A(C   1,C   3,H   7)          111.59  0.000058    0.04    111.62   
    36. A(C   3,C   5,H   9)          111.78 -0.000070    0.00    111.79   
    37. A(C   3,C   5,C   8)          104.04  0.000091    0.05    104.09   
    38. A(H   9,C   5,H  11)           66.72  0.000008    0.43     67.15   
    39. A(C   8,C   5,H  11)           61.16  0.000033   -0.30     60.86   
    40. A(C   3,C   5,H  11)           84.87 -0.000025   -0.20     84.67   
    41. A(H  10,C   5,H  11)          163.41  0.000043    0.13    163.54   
    42. A(H   9,C   5,H  10)          106.66  0.000011   -0.11    106.55   
    43. A(C   8,C   5,H  10)          110.90 -0.000019    0.08    110.97   
    44. A(C   3,C   5,H  10)          111.63 -0.000016    0.05    111.68   
    45. A(C   8,C   5,H   9)          111.92  0.000002   -0.06    111.87   
    46. A(C   3,H   6,H  14)          108.23 -0.000038    0.37    108.60   
    47. A(C   0,C   8,C   5)          110.35 -0.000042   -0.04    110.31   
    48. A(H  11,C   8,H  12)          103.44  0.000029   -0.07    103.37   
    49. A(C   5,C   8,H  11)           86.59 -0.000030    0.40     86.98   
    50. A(C   5,C   8,H  12)          124.19  0.000073   -0.09    124.11   
    51. A(C   0,C   8,H  12)          125.42 -0.000030    0.14    125.56   
    52. A(C   0,C   8,H  11)           80.13 -0.000036   -0.46     79.67   
    53. A(C   5,H   9,H  11)           90.43 -0.000047   -0.37     90.06   
    54. A(H   9,H  11,O  13)          105.69  0.000008   -0.80    104.90   
    55. A(C   8,H  11,H  12)           21.10 -0.000072    0.08     21.18   
    56. A(H  12,H  11,O  13)          161.85  0.000033   -0.81    161.05   
    57. A(C   8,H  11,O  13)          152.87  0.000032    0.31    153.18   
    58. A(C   0,H  11,C   5)           51.63 -0.000015   -0.00     51.63   
    59. A(C   5,H  11,H   9)           22.85  0.000039   -0.07     22.79   
    60. A(C   5,H  11,C   8)           32.25 -0.000003   -0.09     32.16   
    61. A(C   5,H  11,O  13)          121.01  0.000033   -0.20    120.81   
    62. A(C   0,H  11,H   9)           74.34  0.000023   -0.08     74.26   
    63. A(C   0,H  11,H  12)           46.31 -0.000068    0.18     46.49   
    64. A(C   0,H  11,C   8)           31.40 -0.000002    0.11     31.50   
    65. A(C   0,H  11,O  13)          142.75  0.000022    1.66    144.41   
    66. A(C   5,H  11,H  12)           47.11 -0.000045   -0.02     47.08   
    67. A(H   9,H  11,H  12)           58.19 -0.000005   -0.17     58.02   
    68. A(C   8,H  11,H   9)           50.65  0.000023   -0.20     50.45   
    69. A(C   8,H  12,H  11)           55.46  0.000043   -0.01     55.45   
    70. A(H  11,O  13,H  14)          103.50  0.000210   -0.16    103.33   
    71. A(H   6,H  14,O  13)           92.02  0.000004    0.09     92.11   
    72. D(C   3,C   1,C   0,H  11)     66.62  0.000022    0.46     67.08   
    73. D(H   4,C   1,C   0,C   8)    179.53  0.000018    0.03    179.56   
    74. D(C   3,C   1,C   0,H   2)    179.70 -0.000027   -0.08    179.62   
    75. D(C   3,C   1,C   0,C   8)     -0.23  0.000009    0.07     -0.17   
    76. D(H   4,C   1,C   0,H   2)     -0.54 -0.000017   -0.12     -0.66   
    77. D(C   5,C   3,C   1,C   0)      1.58  0.000008   -0.04      1.54   
    78. D(H   6,C   3,C   1,C   0)   -118.53 -0.000020   -0.03   -118.56   
    79. D(C   5,C   3,C   1,H   4)   -178.18 -0.000002   -0.01   -178.19   
    80. D(H   6,C   3,C   1,H   4)     61.71 -0.000030    0.00     61.71   
    81. D(H   7,C   3,C   1,C   0)    122.58 -0.000015   -0.06    122.51   
    82. D(H   9,C   5,C   3,H   6)     -3.07 -0.000003   -0.01     -3.09   
    83. D(C   8,C   5,C   3,H   6)    117.89  0.000018   -0.05    117.84   
    84. D(C   8,C   5,C   3,C   1)     -2.20 -0.000021    0.01     -2.19   
    85. D(C   8,C   5,C   3,H   7)   -122.88 -0.000013   -0.02   -122.90   
    86. D(H   9,C   5,C   3,C   1)   -123.16 -0.000042    0.04   -123.12   
    87. D(H   9,C   5,C   3,H   7)    116.16 -0.000034    0.02    116.18   
    88. D(H  10,C   5,C   3,C   1)    117.45  0.000003    0.15    117.61   
    89. D(H  14,H   6,C   3,H   7)    163.59  0.000032    0.28    163.88   
    90. D(H  14,H   6,C   3,C   5)    -73.94  0.000062    0.29    -73.65   
    91. D(H  14,H   6,C   3,C   1)     41.71 -0.000037    0.25     41.96   
    92. D(C   5,C   8,C   0,C   1)     -1.32 -0.000025   -0.06     -1.37   
    93. D(C   0,C   8,C   5,H   9)    123.08  0.000003    0.03    123.11   
    94. D(C   5,C   8,C   0,H  11)    -82.59  0.000037   -0.25    -82.84   
    95. D(H  12,C   8,C   0,H   2)      0.88 -0.000014   -0.05      0.83   
    96. D(H  12,C   8,C   0,C   1)   -179.18 -0.000049   -0.20   -179.39   
    97. D(C   0,C   8,C   5,C   3)      2.22  0.000030    0.03      2.25   
    98. D(C   5,C   8,C   0,H   2)    178.75  0.000011    0.09    178.84   
    99. D(C   0,C   8,C   5,H  11)     78.15 -0.000044   -0.34     77.82   
   100. D(C   0,C   8,C   5,H  10)   -117.93  0.000005   -0.10   -118.03   
   101. D(H  12,C   8,C   0,H  11)     99.54  0.000013   -0.40     99.15   
   102. D(H  12,C   8,C   5,C   3)   -179.88  0.000052    0.18   -179.70   
   103. D(H  12,C   8,C   5,H  10)     59.97  0.000027    0.05     60.02   
   104. D(H  12,C   8,C   5,H   9)    -59.02  0.000025    0.18    -58.83   
   105. D(H  11,H   9,C   5,H  10)   -163.79 -0.000042   -0.02   -163.81   
   106. D(H  11,H   9,C   5,C   8)    -42.34 -0.000057   -0.04    -42.37   
   107. D(H  11,H   9,C   5,C   3)     73.93  0.000013   -0.01     73.92   
   108. D(O  13,H  11,H   9,C   5)   -135.34 -0.000003   -1.76   -137.10   
   109. D(H   9,H  11,C   8,H  12)    103.38  0.000025   -0.10    103.29   
   110. D(H   9,H  11,C   8,C   5)    -20.99 -0.000045   -0.08    -21.07   
   111. D(H  12,H  11,C   8,C   5)   -124.37 -0.000070    0.02   -124.36   
   112. D(H  12,H  11,C   8,C   0)    124.28 -0.000038    0.05    124.33   
   113. D(O  13,H  11,C   8,H  12)    136.94  0.000030   -4.32    132.62   
   114. D(O  13,H  11,C   8,C   0)    -98.79 -0.000008   -4.27   -103.05   
   115. D(H  12,H  11,C   5,C   8)     23.92 -0.000085    0.12     24.04   
   116. D(H  12,H  11,C   5,C   3)    133.04  0.000028    0.35    133.39   
   117. D(C   8,H  11,C   5,H  10)    -65.04  0.000042    1.12    -63.92   
   118. D(C   8,H  11,C   5,H   9)   -134.50  0.000044    0.21   -134.29   
   119. D(C   8,H  11,C   5,C   3)    109.12  0.000113    0.23    109.35   
   120. D(O  13,H  11,C   5,H  10)    121.60  0.000016   -1.32    120.28   
   121. D(O  13,H  11,C   5,H   9)     52.14  0.000018   -2.23     49.91   
   122. D(O  13,H  11,C   5,C   8)   -173.36 -0.000026   -2.44   -175.80   
   123. D(O  13,H  11,C   5,C   3)    -64.23  0.000087   -2.21    -66.45   
   124. D(H  12,H  11,C   0,C   8)    -24.29  0.000043    0.00    -24.29   
   125. D(O  13,H  11,C   8,C   5)     12.56 -0.000040   -4.30      8.26   
   126. D(H  12,H  11,C   0,H   2)     96.20  0.000029    0.09     96.29   
   127. D(H  12,H  11,C   0,C   1)   -137.06  0.000053    0.05   -137.01   
   128. D(C   8,H  11,C   0,H   2)    120.49 -0.000014    0.08    120.57   
   129. D(H   9,H  11,C   8,C   0)   -132.34 -0.000013   -0.05   -132.38   
   130. D(C   8,H  11,C   0,C   1)   -112.77  0.000010    0.05   -112.72   
   131. D(O  13,H  11,C   0,C   8)    131.90  0.000040   -1.57    130.33   
   132. D(O  13,H  11,C   0,H   2)   -107.62  0.000026   -1.48   -109.10   
   133. D(C   8,H  11,H   9,C   5)     29.48  0.000011    0.12     29.61   
   134. D(O  13,H  11,C   0,C   1)     19.12  0.000050   -1.52     17.60   
   135. D(C   0,H  11,H   9,C   5)      5.91  0.000021    0.06      5.97   
   136. D(H  12,H  11,H   9,C   5)     53.82 -0.000074    0.28     54.10   
   137. D(C   8,H  12,H  11,C   5)    -36.95  0.000008    0.09    -36.86   
   138. D(C   8,H  12,H  11,C   0)     36.54  0.000065   -0.01     36.52   
   139. D(C   8,H  12,H  11,H   9)    -62.28 -0.000030    0.06    -62.22   
   140. D(C   8,H  12,H  11,O  13)    -91.76  0.000164   -3.99    -95.74   
   141. D(H  11,H  12,C   8,C   5)     95.07  0.000005    0.44     95.51   
   142. D(H  11,H  12,C   8,C   0)    -87.35  0.000030    0.61    -86.73   
   143. D(H  14,O  13,H  11,C   5)     91.63 -0.000029    1.10     92.73   
   144. D(H  14,O  13,H  11,C   0)     25.58 -0.000045    0.94     26.52   
   145. D(H  14,O  13,H  11,H   9)    110.21  0.000008    0.43    110.64   
   146. D(H  14,O  13,H  11,H  12)    135.95 -0.000158    3.60    139.55   
   147. D(H  14,O  13,H  11,C   8)     83.85 -0.000006    3.61     87.46   
   148. D(H   6,H  14,O  13,H  11)    -70.59  0.000026    0.50    -70.09   
   149. D(O  13,H  14,H   6,C   3)     78.68 -0.000193   -1.69     76.98   
    ----------------------------------------------------------------------------

Geometry step timings:
Preparation and reading OPT file:      0.000 s ( 0.317 %)
Internal coordinates            :      0.000 s ( 0.599 %)
B/P matrices and projection     :      0.001 s (22.375 %)
Hessian update/contruction      :      0.000 s ( 6.836 %)
Making the step                 :      0.003 s (55.479 %)
Converting the step to Cartesian:      0.000 s ( 2.467 %)
Storing new data                :      0.000 s ( 0.423 %)
Checking convergence            :      0.000 s ( 0.722 %)
Final printing                  :      0.001 s (10.765 %)
Total time                      :      0.006 s

Time for energy+gradient        :     42.694 s
Time for complete geometry iter :     45.377 s




    ----------------------------------------------------------------------------
                                   ERROR !!!
       The optimization did not converge but reached the maximum 
       number of optimization cycles.
       As a subsequent Frequencies calculation has been requested
       ORCA will abort at this point of the run.
       Please restart the calculation with the lowest energy geometry and/or
       a larger maxiter for the geometry optimization.
    ----------------------------------------------------------------------------



--------------------------------
SUGGESTED CITATIONS FOR THIS RUN
--------------------------------

Below you find a list of papers that are relevant to this ORCA run
We neither can nor want to force you to cite these papers, but we appreciate if you do
You receive ORCA, which is the product of decades of hard work by many enthusiastic individuals, for free
The only thing we kindly ask in return is that you cite our papers,
We deeply appreciate it, if you show your appreciation for ORCA by not just citing the generic ORCA reference.

Please note that relegating all ORCA citations to the supporting information does *not* help us.
SI sections are not indexed - citations you put there will not count into any citation statistics
But we need these citations in order to attract the funding resources that allow us to do what we are doing

Therefore, if you are a happy ORCA user, please consider citing a few of the papers listed below in the main body of your paper

In addition to the list printed below, the program has created the file opt.bibtex that contains the list in bibtex format
You can import this file easily into all common literature databanks and citation aid programs

It goes without saying that in many instances, there are alternative algorithms to achieve similar
results as the ones you have gotten from ORCA. It is, of course, also the case that in some instances
ORCA just re-implements algorithms worked out by others. We are fully aware of that and we are also
fully appreciative of our colleagues work. Hence this citation list should not be read as indicating
that the listed papers, which are focused on our own work, are the only ones worth citing. It simply
meant to make it easier for users to cite ORCA specific papers. It is not a substitute for doing your
own literature research and citing the relevant literature in a scientifically appropriate manner.

List of essential papers. We consider these as the minimum necessary citations

  1. Neese, F.
     Software update: the ORCA program system, version 6.0
     WIRES Comput. Molec. Sci. 2025 15(1), e70019
     doi.org/10.1002/wcms.70019

List of papers to cite with high priority. The work reported in these papers was absolutely
necessary for this run to complete.
Our perspective: the developers of density functionals and basis sets usually get cited in chemistry papers
Good! But without the algorithms to do something with them, the functionals or basis sets would not do anything.
Hence, in our opinion, the algorithm design and method developments papers are equally worthy of getting cited

  1. Neese, F.
     An improvement of the resolution of the identity approximation for the formation of the Coulomb matrix
     J. Comp. Chem. 2003 24(14), 1740-1747
     doi.org/10.1002/jcc.10318
  2. Neese, F.; Schwabe, T.; Grimme, S.
     Analytic derivatives for perturbatively corrected 'double hybrid' density functionals: Theory, implementation, and applications
     J. Chem. Phys. 2007 126(12), Art. No. 124115
     doi.org/10.1063/1.2712433
  3. Neese, F.; Wennmohs, F.; Hansen, A.; Becker, U.
     Efficient, approximate and parallel Hartree-Fock and hybrid DFT calculations. A 'chain-of-spheres' algorithm for the Hartree-Fock exchange
     Chem. Phys. 2009 356(1-3), 98-109
     doi.org/10.1016/j.chemphys.2008.10.036
  4. Kossmann, S.; Neese, F.
     Efficient Structure Optimization with Second-Order Many-Body Perturbation Theory: The RIJCOSX-MP2 Method
     J. Theo. Comp. Chem. 2010 6 , 2325-2338
     doi.org/10.1021/ct100199k
  5. Caldeweyher, E.; Bannwarth, C.; Grimme, S.
     Extension of the D3 dispersion coefficient model
     J. Chem. Phys. 2017 147 , 034112
     doi.org/10.1063/1.4993215
  6. Caldeweyher, E.; Ehlert, S.; Hansen, A.; Neugebauer, H.; Spicher, S.; Bannwarth, C.; Grimme, S.
     A generally applicable atomic-charge dependent London dispersion correction
     J. Chem. Phys. 2019 150 , 154122
     doi.org/10.1063/1.5090222
  7. Helmich-Paris, B.; de Souza, B.; Neese, F.; Izsák, R.
     An improved chain of spheres for exchange algorithm
     J. Chem. Phys. 2021 155(10), 104109
     doi.org/10.1063/5.0058766
  8. Neese, F.
     The SHARK Integral Generation and Digestion System
     J. Comp. Chem. 2022 44(3), 381
     doi.org/10.1002/jcc.26942

List of suggested additional citations. These are papers that are important in the 'surrounding' of 
of this run, or papers that preceded the highly important papers. If you like your results we are grateful for a citation.

  1. Izsak, R.; Neese, F.
     An overlap fitted chain of spheres exchange method
     J. Chem. Phys. 2011 135 , 144105
     doi.org/10.1063/1.3646921
  2. Izsak, R.; Hansen, A.; Neese, F.
     The resolution of identity and chain of spheres approximations for the LPNO-CCSD singles Fock term
     Molec. Phys. 2012 110 , 2413-2417
     doi.org/10.1080/00268976.2012.687466
  3. Neese, F.
     The ORCA program system
     WIRES Comput. Molec. Sci. 2012 2(1), 73-78
     doi.org/10.1002/wcms.81
  4. Izsak, R.; Neese, F.; Klopper, W.
     Robust fitting techniques in the chain of spheres approximation to the Fock exchange: The role of the complementary space
     J. Chem. Phys. 2013 139 , 
     doi.org/10.1063/1.4819264
  5. Neese, F.
     Software update: the ORCA program system, version 4.0
     WIRES Comput. Molec. Sci. 2018 8(1), 1-6
     doi.org/10.1002/wcms.1327
  6. Neese, F.; Wennmohs, F.; Becker, U.; Riplinger, C.
     The ORCA quantum chemistry program package
     J. Chem. Phys. 2020 152(22), 224108
     doi.org/10.1063/5.0004608
  7. Neese, F.
     Software update: The ORCA program system—Version 5.0
     WIRES Comput. Molec. Sci. 2022 12(1), e1606
     doi.org/10.1002/wcms.1606

List of optional additional citations

  1. Neese, F.
     Approximate second-order SCF convergence for spin unrestricted wavefunctions
     Chem. Phys. Lett. 2000 325(1-3), 93-98
     doi.org/10.1016/s0009-2614(00)00662-x

Timings for individual modules:

Sum of individual times          ...     2100.989 sec (=  35.016 min)
Startup calculation              ...      143.214 sec (=   2.387 min)   6.8 %
SCF iterations                   ...      838.037 sec (=  13.967 min)  39.9 %
MP2 module                       ...     1119.480 sec (=  18.658 min)  53.3 %
Geometry relaxation              ...        0.258 sec (=   0.004 min)   0.0 %
                             ****ORCA TERMINATED NORMALLY****
TOTAL RUN TIME: 0 days 0 hours 36 minutes 54 seconds 330 msec
