
                                 *****************
                                 * O   R   C   A *
                                 *****************

                                            #,                                       
                                            ###                                      
                                            ####                                     
                                            #####                                    
                                            ######                                   
                                           ########,                                 
                                     ,,################,,,,,                         
                               ,,#################################,,                 
                          ,,##########################################,,             
                       ,#########################################, ''#####,          
                    ,#############################################,,   '####,        
                  ,##################################################,,,,####,       
                ,###########''''           ''''###############################       
              ,#####''   ,,,,##########,,,,          '''####'''          '####       
            ,##' ,,,,###########################,,,                        '##       
           ' ,,###''''                  '''############,,,                           
         ,,##''                                '''############,,,,        ,,,,,,###''
      ,#''                                            '''#######################'''  
     '                                                          ''''####''''         
             ,#######,   #######,   ,#######,      ##                                
            ,#'     '#,  ##    ##  ,#'     '#,    #''#        ,####,    ,#,          
            ##       ##  ##   ,#'  ##            #'  '#       #'       ,# #          
            ##       ##  #######   ##           ,######,      #####,      #          
            '#,     ,#'  ##    ##  '#,     ,#' ,#      #,     #,   #      #          
             '#######'   ##     ##  '#######'  #'      '#     '####' #    #          



                #########################################################
                #                        -***-                          #
                #          Department of theory and spectroscopy        #
                #                                                       #
                #                      Frank Neese                      #
                #                                                       #
                #     Directorship, Architecture, Infrastructure        #
                #                    SHARK, DRIVERS                     #
                #        Core code/Algorithms in most modules           #
                #                                                       #
                #        Max Planck Institute fuer Kohlenforschung      #
                #                Kaiser Wilhelm Platz 1                 #
                #                 D-45470 Muelheim/Ruhr                 #
                #                      Germany                          #
                #                                                       #
                #                  All rights reserved                  #
                #                        -***-                          #
                #########################################################


                         Program Version 6.1.0  -  RELEASE   -
                                (GIT: $679e74b$)
                          ($2025-06-10 18:02:51 +0200$)


 With contributions from (in alphabetic order):
[Max-Planck-Institut fuer Kohlenforschung]                               
  Daniel Aravena         : Magnetic Suceptibility                        
  Michael Atanasov       : Ab Initio Ligand Field Theory (pilot matlab implementation)
  Alexander A. Auer      : GIAO ZORA, VPT2 properties, NMR spectrum      
  Ute Becker             : All parallelization in ORCA, NUMFREQ, NUMCALC 
  Giovanni Bistoni       : ED, misc. LED, open-shell LED, HFLD           
  Dmytro Bykov           : pre 5.0 version of the SCF Hessian            
  Marcos Casanova-Páez   : Triplet and SCS-CIS(D). UHF-(DLPNO)-IP/EA/STEOM-CCSD. UHF-CVS-IP/STEOM-CCSD   
  Vijay G. Chilkuri      : MRCI spin determinant printing, contributions to CSF-ICE 
  Pauline Colinet        : FMM embedding                                 
  Dipayan Datta          : RHF DLPNO-CCSD density                        
  Achintya Kumar Dutta   : EOM-CC, STEOM-CC                              
  Nicolas Foglia         : Exact transition moments, OPA infrastructure, MCD improvements    
  Dmitry Ganyushin       : Spin-Orbit,Spin-Spin,Magnetic field MRCI      
  Miquel Garcia-Rates    : C-PCM and meta-GGA Hessian, CCSD/C-PCM, Gaussian charge scheme 
  Tiago L. C. Gouveia    : GS-ROHF, GS-ROCIS                             
  Yang Guo               : DLPNO-NEVPT2, F12-NEVPT2, CIM, IAO-localization        
  Andreas Hansen         : Spin unrestricted coupled pair/coupled cluster methods 
  Ingolf Harden          : AUTO-CI MPn and infrastructure                
  Benjamin Helmich-Paris : MC-RPA, TRAH-(SCF,CASSCF), AVAS, COSX integrals, SCF dyn. polar., MC-PDFT, srDFT 
  Lee Huntington         : MR-EOM, pCC                                   
  Robert Izsak           : Overlap fitted RIJCOSX, COSX-SCS-MP3, EOM     
  Riya Kayal             : Wick's Theorem for AUTO-CI, AUTO-CI UHF-CCSDT 
  Emily Kempfer          : AUTO-CI RHF CISDT and CCSDT, approximate NEVPT4
  Christian Kollmar      : KDIIS, OOCD, Brueckner-CCSD(T), CCSD density, CASPT2, CASPT2-K, improved NEVPT2 
  Axel Koslowski         : Symmetry handling                             
  Simone Kossmann        : meta-GGA functionals, TD-DFT gradient, OOMP2, (MP2 Hessian; deprecated post 5.0) 
  Lucas Lang             : DCDCAS, Hyperfine gauge corrections, ICE-SOC+SSC
  Marvin Lechner         : AUTO-CI (C++ implementation), FIC-MRCC        
  Spencer Leger          : CASSCF response                               
  Dagmar Lenk            : GEPOL surface, SMD, ORCA-2-JSON               
  Dimitrios Liakos       : Extrapolation schemes; Compound Job, Property file
  Dimitrios Manganas     : Further ROCIS development; embedding schemes. LFT, Crystal Embedding 
  Dimitrios Pantazis     : SARC Basis sets                               
  Anastasios Papadopoulos: AUTO-CI, single reference methods and gradients 
  Taras Petrenko         : pre 6.0 DFT Hessian and TD-DFT gradient,  ECA, NRVS 
  Petra Pikulova         : Analytic Raman intensities                    
  Peter Pinski           : DLPNO-MP2, DLPNO-MP2 Gradient                 
  Shashank Vittal Rao    : ES-AILFT, MagRelax                            
  Christoph Reimann      : Effective Core Potentials                     
  Marius Retegan         : Local ZFS, SOC                                
  Christoph Riplinger    : Optimizer, TS searches, QM/MM, DLPNO-CCSD(T), (RO)-DLPNO pert. Triples 
  Michael Roemelt        : Original ROCIS implementation, recursive CI coupling coefficients
  Masaaki Saitow         : Open-shell DLPNO-CCSD energy and density      
  Barbara Sandhoefer     : DKH picture change effects                    
  Yorick L. A. Schmerwitz: GMF and freeze-and-release deltaSCF, NEB S-IDPP initial path                    
  Kantharuban Sivalingam : CASSCF convergence/infrastructure, NEVPT2, NEVPT3, NEVPT4(SD), FIC-MRCI and CEPA variants
  Bernardo de Souza      : ESD, SOC TD-DFT                               
  Georgi L. Stoychev     : AutoAux, RI-MP2 NMR, DLPNO-MP2 response, X2C  
  Van Anh Tran           : RI-MP2 g-tensors                              
  Willem Van den Heuvel  : Paramagnetic NMR                              
  Zikuan Wang            : NOTCH, Electric field optimization            
  Frank Wennmohs         : Technical directorship and infrastructure     
  Hang Xu                : AUTO-CI-Response properties                   
                                                                         
[FACCTs GmbH]                                                            
  Markus Bursch, Nicolas Foglia, Miquel Garcia-Rates, Ingolf Harden, Hagen Neugebauer, Anastasios Papadopoulos, 
  Christoph Riplinger, Bernardo de Souza, Georgi L. Stoychev                                                    
                                                                 
  APM, various basis sets, CI-OPT, improved COSX, DLPNO-Multilevel,           
  DOCKER, DRACO, updates on ESD, Fragmentator, GOAT, IRC, LR-CPCM, L-BFGS, MBIS, meta-GGA TD-DFT gradient, ML-optimized integration grids, 
  MM, NACMEs, nearIR, NEB, NEB-TS, NL-DFT gradient (VV10), 2- and 3-layer-ONIOM, interface openCOSMO-RS, QMMM,   
  Crystal-QMMM, RESP, rigid body optimization, SF, symmetry and pop. for TD-DFT, various functionals, SOLVATOR                                   
                                                                         
[Other institutions]                                                     
  V. Asgeirsson          : NEB                                           
  Christoph Bannwarth    : sTDA-DFT, sTD-DFT, PBEh-3c, B97-3c, D3        
  Giovanni Bistoni       : ETS/NOCV, ADLD/ADEX, COVALED                  
  Martin Brehm           : Molecular dynamics                            
  Ronald Cardenas        : ETS/NOCV                                      
  Martina Colucci        : COVALED                                       
  Sebastian Ehlert       : rSCAN, r2SCAN, r2SCAN-3c, D4, dhf basis sets  
  Marvin Friede          : D4 for Fr, Ra, Ac-Lr                          
  Lars Goerigk           : TD-DFT with DH, B97 family of functionals     
  Stefan Grimme          : VdW corrections, initial TS optimization, DFT functionals, gCP, sTDA/sTD-DF 
  Waldemar Hujo          : DFT-NL                                        
  H. Jonsson             : NEB                                           
  Holger Kruse           : gCP                                           
  Marcel Mueller         : wB97X-3c, vDZP basis set                      
  Hagen Neugebauer       : wr2SCAN, Native XTB                           
  Gianluca Regni         : ADLD/ADEX                                     
  Tobias Risthaus        : pre 6.0 range-separated hybrid DFT and stability analysis
  Lukas Wittmann         : regularized MP2, r2SCAN double-hybrids, wr2SCAN        
                                                                         
We gratefully acknowledge several colleagues who have allowed us to      
interface, adapt or use parts of their codes:                            
  Ed Valeev, F. Pavosevic, A. Kumar             : LibInt (2-el integral package), F12 methods 
  Garnet Chan, S. Sharma, J. Yang, R. Olivares  : DMRG                   
  Ulf Ekstrom                                   : XCFun DFT Library      
  Mihaly Kallay                                 : mrcc  (arbitrary order and MRCC methods)
  Frank Weinhold                                : gennbo (NPA and NBO analysis)           
  Simon Mueller                                 : openCOSMO-RS                            
  Christopher J. Cramer and Donald G. Truhlar   : smd solvation model                     
  S Lehtola, MJT Oliveira, MAL Marques          : LibXC Library                           
  Liviu Ungur et al                             : ANISO software                          


 Your calculation uses the libint2 library for the computation of 2-el integrals
 For citations please refer to: http://libint.valeyev.net

 Your ORCA version has been built with support for libXC version: 7.0.0
 For citations please refer to: https://libxc.gitlab.io

 This ORCA versions uses:
   CBLAS   interface :  Fast vector & matrix operations
   LAPACKE interface :  Fast linear algebra routines
   SCALAPACK package :  Parallel linear algebra routines
   Shared memory     :  Shared parallel matrices
   BLAS/LAPACK       :  OpenBLAS 0.3.29  USE64BITINT DYNAMIC_ARCH NO_AFFINITY SkylakeX SINGLE_THREADED
        Core in use  :  SkylakeX
   Copyright (c) 2011-2014, The OpenBLAS Project


  ***********************************
  * Starting time: Thu Sep  4 15:55:40 2025
  * Host name:     csed-0038
  * Process ID:    3128035
  * Working dir.:  /gpfs/fs1/home/copan/proj/cyclopentene-oh-addition-project/calc/cyC5e1/RH+OH_RHOH_saddle/run-path-back
  ***********************************

NOTE: MaxCore=10000 MB was set to SCF,MP2,MDCI,CIPSI,MRCI,RASCI and CIS
      => If you want to overwrite this, your respective input block should be placed after the MaxCore statement


***************************************
The coordinates will be read from file: path_init_back.xyz
***************************************


Your calculation utilizes the atom-pairwise dispersion correction
based on EEQ partial charges (D4)


Warning: RI is on but no J-basis has been assigned. Assigning Def2/J (nothing to worry about!)
================================================================================

----- Orbital basis set information -----
Your calculation utilizes the basis: def2-TZVPP
   F. Weigend and R. Ahlrichs, Phys. Chem. Chem. Phys. 7, 3297 (2005).

----- AuxJ basis set information -----
Your calculation utilizes the auxiliary basis: def2/J
   H-Rn: F. Weigend, Phys. Chem. Chem. Phys. 8, 1057 (2006).
   Fr-Lr: K. Eichkorn, F. Weigend, O. Treutler, R. Ahlrichs; Theor. Chem. Acc. 97, 119 (1997).

----- AuxC basis set information -----
Your calculation utilizes the auxiliary basis: def2-TZVPP/C
  H-La, Hf-Rn : A. Hellweg, C. Hattig, S. Hofener and W. Klopper, Theor. Chem. Acc. 117, 587 (2007).
        Ce-Lu : J. Chmela and M. E. Harding, Mol. Phys. (2018).

================================================================================
                                        WARNINGS
                       Please study these warnings very carefully!
================================================================================


WARNING: your system is open-shell and RHF/RKS was chosen
  ===> : WILL SWITCH to UHF/UKS


WARNING: The frozen-core approximation for MP2-gradient calculations is turned on by default.

WARNING: The environment variable RSH_COMMAND is not set!
  ===> : All Displacements for the Numerical Hessian or Gradient calculation
         will be started on localhost

WARNING: Geometry Optimization
  ===> : Switching off AutoStart
         For restart on a previous wavefunction, please use MOREAD

WARNING: The frozen-core approximation is turned on by default for 
         the MP2 part of double-hybrid DFT.

================================================================================
                                       INPUT FILE
================================================================================
NAME = path_back.inp
|  1> % MaxCore 10000
|  2> ! PAL8
|  3> ! REVDSD-PBEP86-D4/2021 def2-TZVPP def2-TZVPP/c
|  4> ! Opt
|  5> ! NumFreq
|  6> %scf
|  7>    Convergence    VeryTight
|  8> end
|  9> %geom
| 10>    MaxIter        500
| 11>    Convergence    Tight
| 12> end
| 13> * xyzfile 0 2 path_init_back.xyz
| 14> 
| 15>                          ****END OF INPUT****
================================================================================

                       *****************************
                       * Geometry Optimization Run *
                       *****************************

Geometry optimization settings:
Update method            Update   .... BFGS
Choice of coordinates    CoordSys .... (2022) Redundant Internals
Initial Hessian          InHess   .... Almloef's Model
Max. no of cycles        MaxIter  .... 500

Convergence Tolerances:
Energy Change            TolE     ....  1.0000e-06 Eh
Max. Gradient            TolMAXG  ....  1.0000e-04 Eh/bohr
RMS Gradient             TolRMSG  ....  3.0000e-05 Eh/bohr
Max. Displacement        TolMAXD  ....  1.0000e-03 bohr
RMS Displacement         TolRMSD  ....  6.0000e-04 bohr
Strict Convergence                .... False

------------------------------------------------------------------------------
                        ORCA OPTIMIZATION COORDINATE SETUP
------------------------------------------------------------------------------

The optimization will be done in redundant internal coordinates (2022)
Making redundant internal coordinates   ...  (2022 redundants) done
Evaluating the initial hessian          ...  (Almloef) done
Evaluating the coordinates              ...  done
Calculating the B-matrix                .... done
Calculating the G-matrix                .... done
The number of degrees of freedom        ....  125

    -----------------------------------------------------------------
                    Redundant Internal Coordinates


    -----------------------------------------------------------------
         Definition                    Initial Value    Approx d2E/dq
    -----------------------------------------------------------------
      1. B(C   1,C   0)                  1.5427         0.356512   
      2. B(C   2,C   1)                  1.5449         0.353724   
      3. B(C   3,C   2)                  1.5049         0.409650   
      4. B(C   4,C   3)                  1.3373         0.758268   
      5. B(C   4,C   0)                  1.5011         0.415437   
      6. B(H   5,C   0)                  1.0932         0.355933   
      7. B(H   6,C   0)                  1.0891         0.361255   
      8. B(H   7,C   1)                  1.0900         0.360128   
      9. B(H   8,C   1)                  1.0884         0.362243   
     10. B(H   9,C   2)                  1.0916         0.357982   
     11. B(H  10,C   2)                  1.0965         0.351625   
     12. B(H  11,C   3)                  1.0837         0.368498   
     13. B(H  12,C   4)                  1.0816         0.371395   
     14. B(O  13,C   4)                  2.2549         0.023334   
     15. B(O  13,C   0)                  2.8198         0.010000   
     16. B(O  13,H   8)                  2.7408         0.010000   
     17. B(O  13,H   6)                  2.7521         0.010000   
     18. B(O  13,H  12)                  2.5463         0.010000   
     19. B(O  13,C   3)                  2.5266         0.010000   
     20. B(H  14,O  13)                  0.9422         0.555121   
     21. B(H  14,H  11)                  2.7304         0.010000   
     22. B(H  14,H  12)                  2.6841         0.010000   
     23. B(H  14,C   3)                  2.6147         0.010000   
     24. B(H  14,C   4)                  2.5921         0.010000   
     25. A(C   1,C   0,O  13)           84.4714         0.178854   
     26. A(H   5,C   0,O  13)          159.6954         0.166685   
     27. A(C   4,C   0,O  13)           52.7858         0.182020   
     28. A(C   1,C   0,H   6)          112.9117         0.322011   
     29. A(C   1,C   0,H   5)          111.7988         0.321229   
     30. A(C   4,C   0,H   6)          112.2511         0.330219   
     31. A(C   4,C   0,H   5)          109.7063         0.329410   
     32. A(C   1,C   0,C   4)          102.8839         0.367069   
     33. A(H   6,C   0,O  13)           75.2530         0.166947   
     34. A(H   5,C   0,H   6)          107.3105         0.290454   
     35. A(C   2,C   1,H   8)          108.8698         0.321741   
     36. A(C   0,C   1,H   8)          108.8844         0.322155   
     37. A(C   2,C   1,H   7)          112.5932         0.321433   
     38. A(H   7,C   1,H   8)          108.2962         0.291114   
     39. A(C   0,C   1,H   7)          112.6718         0.321846   
     40. A(C   0,C   1,C   2)          105.4129         0.357130   
     41. A(H   9,C   2,H  10)          107.1356         0.289486   
     42. A(C   3,C   2,H  10)          109.7240         0.327989   
     43. A(C   1,C   2,H  10)          111.9235         0.320179   
     44. A(C   3,C   2,H   9)          112.6381         0.328960   
     45. A(C   1,C   2,H   9)          112.4974         0.321118   
     46. A(C   1,C   2,C   3)          102.9719         0.365695   
     47. A(C   4,C   3,O  13)           62.8140         0.225019   
     48. A(C   2,C   3,O  13)          102.1086         0.207325   
     49. A(H  11,C   3,O  13)          105.3782         0.188915   
     50. A(C   4,C   3,H  11)          124.7720         0.366657   
     51. A(C   2,C   3,H  11)          123.4805         0.330537   
     52. A(C   2,C   3,C   4)          111.6650         0.417818   
     53. A(H  12,C   4,O  13)           92.6945         0.214460   
     54. A(C   3,C   4,O  13)           85.3462         0.259493   
     55. A(C   0,C   4,O  13)           95.1986         0.237785   
     56. A(C   3,C   4,H  12)          124.8134         0.367150   
     57. A(C   0,C   4,H  12)          123.0319         0.331735   
     58. A(C   0,C   4,C   3)          112.0414         0.418863   
     59. A(C   4,O  13,H  14)          100.1218         0.224807   
     60. A(C   0,O  13,C   3)           51.9282         0.127357   
     61. A(C   0,O  13,C   4)           32.0156         0.137078   
     62. A(C   0,O  13,H  14)          131.9281         0.173905   
     63. A(C   3,O  13,C   4)           31.8398         0.150352   
     64. A(C   3,O  13,H  14)           84.7601         0.197347   
     65. D(H   7,C   1,C   0,H   5)    -27.0212         0.010816   
     66. D(C   2,C   1,C   0,C   4)    -21.5034         0.010816   
     67. D(C   2,C   1,C   0,H   6)   -142.7279         0.010816   
     68. D(H   7,C   1,C   0,H   6)     94.1070         0.010816   
     69. D(C   2,C   1,C   0,H   5)     96.1439         0.010816   
     70. D(C   2,C   1,C   0,O  13)    -71.3035         0.010816   
     71. D(H   7,C   1,C   0,C   4)   -144.6686         0.010816   
     72. D(H   9,C   2,C   1,C   0)    142.5914         0.010064   
     73. D(H   9,C   2,C   1,H   7)    -94.1934         0.010064   
     74. D(C   3,C   2,C   1,H   8)    -95.6188         0.010064   
     75. D(H   9,C   2,C   1,H   8)     25.9100         0.010064   
     76. D(C   3,C   2,C   1,H   7)    144.2778         0.010064   
     77. D(C   3,C   2,C   1,C   0)     21.0626         0.010064   
     78. D(C   4,C   3,C   2,C   1)    -13.0179         0.014113   
     79. D(O  13,C   3,C   2,C   1)     52.3007         0.014113   
     80. D(H  11,C   3,C   2,H  10)    -70.5395         0.014113   
     81. D(H  11,C   3,C   2,H   9)     48.7120         0.014113   
     82. D(H  11,C   3,C   2,C   1)    170.1453         0.014113   
     83. D(C   4,C   3,C   2,H  10)    106.2972         0.014113   
     84. D(C   4,C   3,C   2,H   9)   -134.4512         0.014113   
     85. D(C   0,C   4,C   3,O  13)    -93.7336         0.054474   
     86. D(H  12,C   4,C   0,O  13)    -96.6303         0.015312   
     87. D(H  12,C   4,C   0,H   6)    -47.6305         0.015312   
     88. D(C   3,C   4,C   0,O  13)     87.0733         0.015312   
     89. D(C   3,C   4,C   0,H   6)    136.0731         0.015312   
     90. D(C   3,C   4,C   0,H   5)   -104.7157         0.015312   
     91. D(H  12,C   4,C   0,H   5)     71.5808         0.015312   
     92. D(C   0,C   4,C   3,H  11)    175.9037         0.054474   
     93. D(C   3,C   4,C   0,C   1)     14.3993         0.015312   
     94. D(C   0,C   4,C   3,C   2)     -0.8843         0.054474   
     95. D(O  13,C   4,C   3,H  11)    -90.3626         0.054474   
     96. D(O  13,C   4,C   3,C   2)     92.8494         0.054474   
     97. D(H  12,C   4,C   3,O  13)     90.0483         0.054474   
     98. D(H  12,C   4,C   3,H  11)     -0.3144         0.054474   
     99. D(H  12,C   4,C   3,C   2)   -177.1023         0.054474   
    100. D(H  12,C   4,C   0,C   1)   -169.3042         0.015312   
    101. D(C   0,O  13,C   4,H  12)    123.5211         0.010000   
    102. D(C   0,O  13,C   4,C   3)   -111.7568         0.010000   
    103. D(C   3,O  13,C   4,C   0)    111.7568         0.010000   
    104. D(H  14,O  13,C   4,H  12)    -62.3241         0.010000   
    105. D(H  14,O  13,C   4,C   3)     62.3980         0.010000   
    106. D(C   0,O  13,C   3,H  11)    160.2956         0.010000   
    107. D(C   0,O  13,C   3,C   4)     38.7159         0.010000   
    108. D(C   0,O  13,C   3,C   2)    -69.6015         0.010000   
    109. D(C   4,O  13,C   3,H  11)    121.5797         0.010000   
    110. D(C   4,O  13,C   3,C   2)   -108.3174         0.010000   
    111. D(H  14,O  13,C   3,H  11)      2.7499         0.010000   
    112. D(H  14,O  13,C   3,C   4)   -118.8298         0.010000   
    113. D(H  14,O  13,C   3,C   2)    132.8528         0.010000   
    114. D(C   3,O  13,C   0,H   5)    -72.1518         0.010000   
    115. D(C   3,O  13,C   0,C   4)    -38.4907         0.010000   
    116. D(C   3,O  13,C   0,C   1)     72.2907         0.010000   
    117. D(C   4,O  13,C   0,H   6)   -133.7553         0.010000   
    118. D(H  14,O  13,C   4,C   0)    174.1547         0.010000   
    119. D(C   4,O  13,C   0,H   5)    -33.6612         0.010000   
    120. D(C   4,O  13,C   0,C   1)    110.7814         0.010000   
    121. D(H  14,O  13,C   0,H   6)   -141.4999         0.010000   
    122. D(C   3,O  13,C   4,H  12)   -124.7221         0.010000   
    123. D(H  14,O  13,C   0,H   5)    -41.4058         0.010000   
    124. D(H  14,O  13,C   0,C   4)     -7.7446         0.010000   
    125. D(H  14,O  13,C   0,C   1)    103.0368         0.010000   
    -----------------------------------------------------------------

Number of atoms                         .... 15
Number of degrees of freedom            .... 125


         *************************************************************
         *                GEOMETRY OPTIMIZATION CYCLE   1            *
         *************************************************************
---------------------------------
CARTESIAN COORDINATES (ANGSTROEM)
---------------------------------
  C      1.910798    1.419309   -0.047779
  C      0.698696    2.303958    0.310281
  C     -0.544840    1.439357    0.005838
  C      0.004123    0.038328    0.028185
  C      1.341288    0.031680    0.010595
  H      2.279240    1.624420   -1.056341
  H      2.748241    1.550511    0.636089
  H      0.694082    3.249650   -0.231659
  H      0.723891    2.521258    1.376455
  H     -1.345448    1.588571    0.732725
  H     -0.962617    1.657356   -0.984220
  H     -0.618709   -0.848247    0.005297
  H      1.953958   -0.858999   -0.023599
  O      1.187584   -0.031655    2.259358
  H      0.743163   -0.854792    2.371831

----------------------------
CARTESIAN COORDINATES (A.U.)
----------------------------
  NO LB      ZA    FRAG     MASS         X           Y           Z
   0 C     6.0000    0    12.011    3.610885    2.682105   -0.090289
   1 C     6.0000    0    12.011    1.320344    4.353850    0.586346
   2 C     6.0000    0    12.011   -1.029598    2.719991    0.011032
   3 C     6.0000    0    12.011    0.007791    0.072429    0.053262
   4 C     6.0000    0    12.011    2.534667    0.059867    0.020022
   5 H     1.0000    0     1.008    4.307139    3.069709   -1.996195
   6 H     1.0000    0     1.008    5.193423    2.930041    1.202034
   7 H     1.0000    0     1.008    1.311625    6.140949   -0.437772
   8 H     1.0000    0     1.008    1.367956    4.764487    2.601123
   9 H     1.0000    0     1.008   -2.542528    3.001964    1.384650
  10 H     1.0000    0     1.008   -1.819083    3.131949   -1.859906
  11 H     1.0000    0     1.008   -1.169191   -1.602955    0.010010
  12 H     1.0000    0     1.008    3.692445   -1.623273   -0.044596
  13 O     8.0000    0    15.999    2.244209   -0.059819    4.269568
  14 H     1.0000    0     1.008    1.404375   -1.615323    4.482111

--------------------------------
INTERNAL COORDINATES (ANGSTROEM)
--------------------------------
 C      0   0   0     0.000000000000     0.00000000     0.00000000
 C      1   0   0     1.542725534632     0.00000000     0.00000000
 C      2   1   0     1.544863169587   105.41285095     0.00000000
 C      3   2   1     1.504905984645   102.97191667    21.06260299
 C      4   3   2     1.337297214993   111.66498992   346.98205832
 H      1   2   3     1.093168485426   111.79879796    96.14394812
 H      1   2   3     1.089128176330   112.91172478   217.27212524
 H      2   1   3     1.089978720645   112.67176312   236.83483110
 H      2   1   3     1.088384617817   108.88437355   116.67147011
 H      3   2   1     1.091605559820   112.49736995   142.59138322
 H      3   2   1     1.096483483275   111.92349682   263.28535621
 H      4   3   2     1.083724499766   123.48054382   170.14531683
 H      5   4   3     1.081592732768   124.81337489   182.89765080
 O      5   4   3     2.254899392880    85.34615169    92.84936566
 H     14   5   4     0.942186139645   100.12177961    62.39795262

---------------------------
INTERNAL COORDINATES (A.U.)
---------------------------
 C      0   0   0     0.000000000000     0.00000000     0.00000000
 C      1   0   0     2.915328760261     0.00000000     0.00000000
 C      2   1   0     2.919368304901   105.41285095     0.00000000
 C      3   2   1     2.843860168277   102.97191667    21.06260299
 C      4   3   2     2.527125495993   111.66498992   346.98205832
 H      1   2   3     2.065789055689   111.79879796    96.14394812
 H      1   2   3     2.058153978002   112.91172478   217.27212524
 H      2   1   3     2.059761273822   112.67176312   236.83483110
 H      2   1   3     2.056748856047   108.88437355   116.67147011
 H      3   2   1     2.062835554325   112.49736995   142.59138322
 H      3   2   1     2.072053493757   111.92349682   263.28535621
 H      4   3   2     2.047942509178   123.48054382   170.14531683
 H      5   4   3     2.043914053371   124.81337489   182.89765080
 O      5   4   3     4.261142312088    85.34615169    92.84936566
 H     14   5   4     1.780473771105   100.12177961    62.39795262

---------------------
BASIS SET INFORMATION
---------------------
There are 3 groups of distinct atoms

 Group   1 Type C   : 11s6p2d1f contracted to 5s3p2d1f pattern {62111/411/11/1}
 Group   2 Type H   : 5s2p1d contracted to 3s2p1d pattern {311/11/1}
 Group   3 Type O   : 11s6p2d1f contracted to 5s3p2d1f pattern {62111/411/11/1}

Atom   0C    basis set group =>   1
Atom   1C    basis set group =>   1
Atom   2C    basis set group =>   1
Atom   3C    basis set group =>   1
Atom   4C    basis set group =>   1
Atom   5H    basis set group =>   2
Atom   6H    basis set group =>   2
Atom   7H    basis set group =>   2
Atom   8H    basis set group =>   2
Atom   9H    basis set group =>   2
Atom  10H    basis set group =>   2
Atom  11H    basis set group =>   2
Atom  12H    basis set group =>   2
Atom  13O    basis set group =>   3
Atom  14H    basis set group =>   2
---------------------------------
AUXILIARY/J BASIS SET INFORMATION
---------------------------------
There are 3 groups of distinct atoms

 Group   1 Type C   : 12s5p4d2f1g contracted to 6s4p3d1f1g pattern {711111/2111/211/2/1}
 Group   2 Type H   : 5s2p1d contracted to 3s1p1d pattern {311/2/1}
 Group   3 Type O   : 12s5p4d2f1g contracted to 6s4p3d1f1g pattern {711111/2111/211/2/1}

Atom   0C    basis set group =>   1
Atom   1C    basis set group =>   1
Atom   2C    basis set group =>   1
Atom   3C    basis set group =>   1
Atom   4C    basis set group =>   1
Atom   5H    basis set group =>   2
Atom   6H    basis set group =>   2
Atom   7H    basis set group =>   2
Atom   8H    basis set group =>   2
Atom   9H    basis set group =>   2
Atom  10H    basis set group =>   2
Atom  11H    basis set group =>   2
Atom  12H    basis set group =>   2
Atom  13O    basis set group =>   3
Atom  14H    basis set group =>   2
---------------------------------
AUXILIARY/C BASIS SET INFORMATION
---------------------------------
There are 3 groups of distinct atoms

 Group   1 Type C   : 8s6p5d3f1g contracted to 8s6p4d3f1g pattern {11111111/111111/2111/111/1}
 Group   2 Type H   : 4s3p2d1f contracted to 4s3p2d1f pattern {1111/111/11/1}
 Group   3 Type O   : 8s6p5d3f1g contracted to 8s6p4d3f1g pattern {11111111/111111/2111/111/1}

Atom   0C    basis set group =>   1
Atom   1C    basis set group =>   1
Atom   2C    basis set group =>   1
Atom   3C    basis set group =>   1
Atom   4C    basis set group =>   1
Atom   5H    basis set group =>   2
Atom   6H    basis set group =>   2
Atom   7H    basis set group =>   2
Atom   8H    basis set group =>   2
Atom   9H    basis set group =>   2
Atom  10H    basis set group =>   2
Atom  11H    basis set group =>   2
Atom  12H    basis set group =>   2
Atom  13O    basis set group =>   3
Atom  14H    basis set group =>   2


           ************************************************************
           *        Program running with 8 parallel MPI-processes     *
           *              working on a common directory               *
           ************************************************************
------------------------------------------------------------------------------
                             ORCA STARTUP CALCULATIONS
                           -- RI-GTO INTEGRALS CHOSEN --
------------------------------------------------------------------------------
------------------------------------------------------------------------------
                   ___                                                        
                  /   \      - P O W E R E D   B Y -                         
                 /     \                                                     
                 |  |  |   _    _      __       _____    __    __             
                 |  |  |  | |  | |    /  \     |  _  \  |  |  /  |          
                  \  \/   | |  | |   /    \    | | | |  |  | /  /          
                 / \  \   | |__| |  /  /\  \   | |_| |  |  |/  /          
                |  |  |   |  __  | /  /__\  \  |    /   |      \           
                |  |  |   | |  | | |   __   |  |    \   |  |\   \          
                \     /   | |  | | |  |  |  |  | |\  \  |  | \   \       
                 \___/    |_|  |_| |__|  |__|  |_| \__\ |__|  \__/        
                                                                              
                      - O R C A' S   B I G   F R I E N D -                    
                                      &                                       
                       - I N T E G R A L  F E E D E R -                       
                                                                              
 v1 FN, 2020, v2 2021, v3 2022-2024                                           
------------------------------------------------------------------------------


----------------------
SHARK INTEGRAL PACKAGE
----------------------

Number of atoms                             ...     15
Number of basis functions                   ...    312
Number of shells                            ...    120
Maximum angular momentum                    ...      3
Integral batch strategy                     ... SHARK/LIBINT Hybrid
RI-J (if used) integral strategy            ... SPLIT-RIJ (Revised 2003 algorithm where possible)
Printlevel                                  ...      1
Contraction scheme used                     ... SEGMENTED contraction
Prescreening option                         ... SCHWARTZ
   Thresh                                   ... 1.000e-12
   Tcut                                     ... 1.000e-14
   Tpresel                                  ... 1.000e-14 
Coulomb Range Separation                    ... NOT USED
Exchange Range Separation                   ... NOT USED
Multipole approximations                    ... NOT USED
Finite Nucleus Model                        ... NOT USED
CABS basis                                  ... NOT available
Auxiliary Coulomb fitting basis             ... AVAILABLE
   # of basis functions in Aux-J            ...    393
   # of shells in Aux-J                     ...    135
   Maximum angular momentum in Aux-J        ...      4
Auxiliary J/K fitting basis                 ... NOT available
Auxiliary Correlation fitting basis         ... AVAILABLE
   # of basis functions in Aux-C            ...    726
   # of shells in Aux-C                     ...    222
   Maximum angular momentum in Aux-C        ...      4
Auxiliary 'external' fitting basis          ... NOT available

Checking pre-screening integrals            ... done (  0.0 sec) Dimension = 120
   => SHARK Basis and OBASIS are compatible. Storing Pre-screening
Shell pair information
Shell pair cut-off parameter TPreSel        ...   1.0e-14
Total number of shell pairs                 ...      7260
Shell pairs after pre-screening             ...      7005
Total number of primitive shell pairs       ...     18687
Primitive shell pairs kept                  ...     14789
          la=0 lb=0:   1560 shell pairs
          la=1 lb=0:   1975 shell pairs
          la=1 lb=1:    649 shell pairs
          la=2 lb=0:   1153 shell pairs
          la=2 lb=1:    741 shell pairs
          la=2 lb=2:    228 shell pairs
          la=3 lb=0:    338 shell pairs
          la=3 lb=1:    214 shell pairs
          la=3 lb=2:    126 shell pairs
          la=3 lb=3:     21 shell pairs

Checking whether 4 symmetric matrices of dimension 312 fit in memory
:Max Core in MB      =  10000.00
 MB in use           =     12.10
 MB left             =   9987.90
 MB needed           =      1.49
 Data fit in memory  = YES
Calculating RI/J V-Matrix + Cholesky decomp.... done (  0.0 sec)
Calculating RI/C V-Matrix + Cholesky decomp.... done (  0.0 sec)
Calculating Nuclear repulsion               ... done (  0.0 sec) ENN=    239.575209799549 Eh

Diagonalization of the overlap matrix:
Smallest eigenvalue                        ... 6.689e-05
Time for diagonalization                   ...    0.011 sec
Threshold for overlap eigenvalues          ... 1.000e-07
Number of eigenvalues below threshold      ... 0
Time for construction of square roots      ...    0.005 sec
Total time needed                          ...    0.018 sec

-------------------
DFT GRID GENERATION
-------------------

General Integration Accuracy     IntAcc      ... 4.388
Radial Grid Type                 RadialGrid  ... OptM3 with GC (2021)
Angular Grid (max. ang.)         AngularGrid ... 4 (Lebedev-302)
Angular grid pruning method      GridPruning ... 4 (adaptive)
Weight generation scheme         WeightScheme... mBecke (2022)
Basis function cutoff            BFCut       ... 1.0000e-12
Integration weight cutoff        WCut        ... 1.0000e-14
Partially contracted basis set               ... off
Rotationally invariant grid construction     ... off
Angular grids for H and He will be reduced by one unit

Total number of grid points                  ...    65055
Total number of batches                      ...     1024
Average number of points per batch           ...       63
Average number of grid points per atom       ...     4337

--------------------
COSX GRID GENERATION
--------------------

GRIDX 1
-------
General Integration Accuracy     IntAcc      ... 3.816
Radial Grid Type                 RadialGrid  ... OptM3 with GC (2021)
Angular Grid (max. ang.)         AngularGrid ... 1 (Lebedev-50)
Angular grid pruning method      GridPruning ... 4 (adaptive)
Weight generation scheme         WeightScheme... mBecke (2022)
Basis function cutoff            BFCut       ... 1.0000e-12
Integration weight cutoff        WCut        ... 1.0000e-14
Partially contracted basis set               ... on
Rotationally invariant grid construction     ... off
Angular grids for H and He will be reduced by one unit

Total number of grid points                  ...     8364
Total number of batches                      ...       76
Average number of points per batch           ...      110
Average number of grid points per atom       ...      558
UseSFitting                                  ... on

GRIDX 2
-------
General Integration Accuracy     IntAcc      ... 4.020
Radial Grid Type                 RadialGrid  ... OptM3 with GC (2021)
Angular Grid (max. ang.)         AngularGrid ... 2 (Lebedev-110)
Angular grid pruning method      GridPruning ... 4 (adaptive)
Weight generation scheme         WeightScheme... mBecke (2022)
Basis function cutoff            BFCut       ... 1.0000e-12
Integration weight cutoff        WCut        ... 1.0000e-14
Partially contracted basis set               ... on
Rotationally invariant grid construction     ... off
Angular grids for H and He will be reduced by one unit

Total number of grid points                  ...    17673
Total number of batches                      ...      148
Average number of points per batch           ...      119
Average number of grid points per atom       ...     1178
UseSFitting                                  ... on

GRIDX 3
-------
General Integration Accuracy     IntAcc      ... 4.338
Radial Grid Type                 RadialGrid  ... OptM3 with GC (2021)
Angular Grid (max. ang.)         AngularGrid ... 3 (Lebedev-194)
Angular grid pruning method      GridPruning ... 4 (adaptive)
Weight generation scheme         WeightScheme... mBecke (2022)
Basis function cutoff            BFCut       ... 1.0000e-12
Integration weight cutoff        WCut        ... 1.0000e-14
Partially contracted basis set               ... on
Rotationally invariant grid construction     ... off
Angular grids for H and He will be reduced by one unit

Total number of grid points                  ...    38635
Total number of batches                      ...      310
Average number of points per batch           ...      124
Average number of grid points per atom       ...     2576
UseSFitting                                  ... on
Grids setup in   0.6 sec
Initializing property integral containers    ... done (  0.0 sec)

SHARK setup successfully completed in   0.8 seconds

Maximum memory used throughout the entire STARTUP-calculation: 25.3 MB


           ************************************************************
           *        Program running with 8 parallel MPI-processes     *
           *              working on a common directory               *
           ************************************************************
-------------------------------------------------------------------------------
                                 ORCA GUESS
                   Start orbitals & Density for SCF / CASSCF
-------------------------------------------------------------------------------

------------
SCF SETTINGS
------------
Hamiltonian:
 Density Functional     Method          .... DFT(GTOs)
 Exchange Functional    Exchange        .... PBE
   PBE kappa parameter   XKappa         ....  0.804000
   PBE mue parameter    XMuePBE         ....  0.219520
 Correlation Functional Correlation     .... P86
 LDA part of GGA corr.  LDAOpt          .... VWN-5
 Gradients option       PostSCFGGA      .... off
 Hybrid DFT is turned on
   Fraction HF Exchange ScalHFX         ....  0.690000
   Scaling of DF-GGA-X  ScalDFX         ....  0.310000
   Scaling of DF-GGA-C  ScalDFC         ....  0.422400
   Scaling of DF-LDA-C  ScalLDAC        ....  0.422400
   Perturbative correction              ....  1.000000
 RI-approximation to the Coulomb term is turned on
   Number of AuxJ basis functions       .... 393
   RIJ-COSX (HFX calculated with COS-X)).... on


General Settings:
 Integral files         IntName         .... path_back
 Hartree-Fock type      HFTyp           .... UHF
 Total Charge           Charge          ....    0
 Multiplicity           Mult            ....    2
 Number of Electrons    NEL             ....   47
 Basis Dimension        Dim             ....  312
 Nuclear Repulsion      ENuc            ....    239.5752097995 Eh

Convergence Acceleration:
 AO-DIIS                CNVDIIS         .... on
   Start iteration      DIISMaxIt       ....    12
   Startup error        DIISStart       ....  0.200000
   # of expansion vecs  DIISMaxEq       ....     5
   Bias factor          DIISBfac        ....   1.050
   Max. coefficient     DIISMaxC        ....  10.000
 MO-DIIS                CNVKDIIS        .... off
 Trust-Rad. Augm. Hess. CNVTRAH         .... auto
   Auto Start mean grad. ratio tolernc. ....  1.125000
   Auto Start start iteration           ....    50
   Auto Start num. interpolation iter.  ....    10
   Max. Number of Micro iterations      ....    24
   Max. Number of Macro iterations      .... Maxiter - #DIIS iter
   Number of Davidson start vectors     ....     2
   Converg. threshold    (grad. norm)   ....   2.000e-06
   Grad. Scal. Fac. for Micro threshold ....   0.100
   Minimum threshold for Micro iter.    ....   1.000e-02
   NR start threshold (gradient norm)   ....   1.000e-04
   Initial trust radius                 ....   0.400
   Minimum AH scaling param. (alpha)    ....   1.000
   Maximum AH scaling param. (alpha)    .... 1000.000
   Quad. conv. algorithm                .... NR
   White noise on init. David. guess    .... on
   Maximum white noise                  ....   0.010
   Pseudo random numbers                .... off
   Inactive MOs                         .... canonical
   Orbital update algorithm             .... Taylor
   Preconditioner                       .... Diag
   Full preconditioner red. dimension   ....   250
 SOSCF                 CNVSOSCF           .... on
   Start iteration     SOSCFMaxIt         ....   150
   Startup grad/error  SOSCFStart         ....  0.003300
   Hessian update      SOSCFHessUp        .... L-BFGS
   Autom. constraints  SOSCFAutoConstrain .... off
 Level Shifting         CNVShift        .... on
   Level shift para.    LevelShift      ....    0.2500
   Turn off err/grad.   ShiftErr        ....    0.0010
 Zerner damping         CNVZerner       .... off
 Static damping         CNVDamp         .... on
   Fraction old density DampFac         ....    0.7000
   Max. Damping (<1)    DampMax         ....    0.9800
   Min. Damping (>=0)   DampMin         ....    0.0000
   Turn off err/grad.   DampErr         ....    0.1000

SCF Procedure:
 Maximum # iterations   MaxIter         ....   125
 SCF integral mode      SCFMode         .... Direct
   Integral package                     .... SHARK and LIBINT hybrid scheme
 Reset frequency        DirectResetFreq ....    20
 Integral Threshold     Thresh          ....  1.000e-12 Eh
 Primitive CutOff       TCut            ....  1.000e-14 Eh

Convergence Tolerance:
 Convergence Check Mode ConvCheckMode   .... Total+1el-Energy
 Convergence forced     ConvForced      .... 0
 Energy Change          TolE            ....  1.000e-09 Eh
 1-El. energy change                    ....  1.000e-06 Eh
 Orbital Gradient       TolG            ....  2.000e-06
 Orbital Rotation angle TolX            ....  2.000e-06
 DIIS Error             TolErr          ....  1.000e-08

------------------------------
INITIAL GUESS: MODEL POTENTIAL
------------------------------
Loading Hartree-Fock densities                     ... done
Calculating cut-offs                               ... done
Initializing the effective Hamiltonian             ... done
Setting up the integral package (SHARK)            ... done
Starting the Coulomb interaction                   ... done (   0.0 sec)
Making the grid                                    ... done (   0.1 sec)
Mapping shells                                     ... done
Starting the XC term evaluation                    ... done (   0.1 sec)
  promolecular density results
     # of electrons  =     46.992112713
     EX              =    -36.317976929
     EC              =      0.018471026
     EX+EC           =    -36.299505902
Transforming the Hamiltonian                       ... done (   0.0 sec)
Diagonalizing the Hamiltonian                      ... done (   0.0 sec)
Back transforming the eigenvectors                 ... done (   0.0 sec)
Now organizing SCF variables                       ... done
                      ------------------
                      INITIAL GUESS DONE (   0.2 sec)
                      ------------------
             **** ENERGY FILE WAS UPDATED (path_back.en.tmp) ****
Finished Guess after   0.8 sec
Maximum memory used throughout the entire GUESS-calculation: 18.1 MB


           ************************************************************
           *        Program running with 8 parallel MPI-processes     *
           *              working on a common directory               *
           ************************************************************

-------------------------------------------------------------------------------------------
                                      ORCA LEAN-SCF
                              memory conserving SCF solver
-------------------------------------------------------------------------------------------

----------------------------------------D-I-I-S--------------------------------------------
Iteration    Energy (Eh)           Delta-E    RMSDP     MaxDP     DIISErr   Damp  Time(sec)
-------------------------------------------------------------------------------------------
               ***  Starting incremental Fock matrix formation  ***
    1    -269.8385296272447249     0.00e+00  2.15e-03  2.66e-02  1.69e-01  0.700   1.8
    2    -269.9379800253008170    -9.95e-02  1.61e-03  2.05e-02  8.87e-02  0.700   1.2
                               ***Turning on AO-DIIS***
    3    -269.9868365191901489    -4.89e-02  6.83e-04  1.16e-02  4.77e-02  0.700   1.1
    4    -270.0174476366868248    -3.06e-02  1.76e-03  3.34e-02  3.74e-02  0.000   1.1
    5    -270.0921129416965414    -7.47e-02  6.23e-04  1.07e-02  2.21e-02  0.000   1.1
    6    -270.0960640561894479    -3.95e-03  7.01e-04  1.27e-02  1.56e-02  0.000   1.1
    7    -270.0994071674087991    -3.34e-03  6.03e-04  1.09e-02  1.45e-02  0.000   1.1
    8    -270.1018421309635187    -2.43e-03  5.80e-04  1.00e-02  9.73e-03  0.000   1.1
    9    -270.1032170381997730    -1.37e-03  2.62e-04  4.05e-03  6.66e-03  0.000   1.1
   10    -270.1036789657890154    -4.62e-04  2.23e-04  3.55e-03  3.51e-03  0.000   1.1
                              *** Initializing SOSCF ***
---------------------------------------S-O-S-C-F--------------------------------------
Iteration    Energy (Eh)           Delta-E    RMSDP     MaxDP     MaxGrad    Time(sec)
--------------------------------------------------------------------------------------
   11    -270.1038587089761336    -1.80e-04  8.59e-05  1.12e-03  1.96e-03     1.1
               *** Restarting incremental Fock matrix formation ***
   12    -270.1038666149050300    -7.91e-06  5.66e-05  6.52e-04  1.42e-03     1.7
   13    -270.1038760909785879    -9.48e-06  4.85e-05  5.60e-04  2.94e-04     1.5
   14    -270.1038808857902609    -4.79e-06  2.93e-05  5.36e-04  1.41e-04     1.5
   15    -270.1038820345131057    -1.15e-06  2.16e-05  3.89e-04  1.33e-04     1.4
   16    -270.1038825512645190    -5.17e-07  7.14e-06  1.20e-04  1.29e-04     1.4
   17    -270.1038827958802813    -2.45e-07  1.29e-05  2.70e-04  1.16e-04     1.3
   18    -270.1038831575997960    -3.62e-07  1.36e-05  2.61e-04  8.24e-05     1.4
   19    -270.1038833991756860    -2.42e-07  7.40e-06  1.49e-04  7.17e-05     1.4
   20    -270.1038834971092228    -9.79e-08  2.42e-06  5.19e-05  4.58e-05     1.3
   21    -270.1038835274792973    -3.04e-08  1.74e-06  2.20e-05  1.86e-05     1.3
   22    -270.1038835380544469    -1.06e-08  1.03e-06  1.49e-05  7.54e-06     1.3
   23    -270.1038835407261445    -2.67e-09  5.02e-07  8.44e-06  6.00e-06     1.3
   24    -270.1038835417512018    -1.03e-09  4.63e-07  7.25e-06  3.66e-06     1.3
   25    -270.1038835421587123    -4.08e-10  3.96e-07  6.27e-06  2.54e-06     1.3
                 **** Energy Check signals convergence ****

               *****************************************************
               *                     SUCCESS                       *
               *           SCF CONVERGED AFTER  25 CYCLES          *
               *****************************************************

Recomputing exchange energy using gridx3       ... done (    2.406 sec)
Old exchange energy                            :    -25.803738582 Eh
New exchange energy                            :    -25.803789467 Eh
Exchange energy change after final integration :     -0.000050886 Eh
Total energy after final integration           :   -270.103934428 Eh
             **** ENERGY FILE WAS UPDATED (path_back.en.tmp) ****

----------------
TOTAL SCF ENERGY
----------------

Total Energy       :       -270.10393442788677 Eh           -7349.90172 eV

Components:
Nuclear Repulsion  :        239.57520979954950 Eh            6519.17289 eV
Electronic Energy  :       -509.67909334185498 Eh          -13869.07322 eV
One Electron Energy:       -841.02781470066577 Eh          -22885.53032 eV
Two Electron Energy:        331.34872135881079 Eh            9016.45710 eV

Virial components:
Potential Energy   :       -539.64792030817466 Eh          -14684.56646 eV
Kinetic Energy     :        269.54398588028789 Eh            7334.66474 eV
Virial Ratio       :          2.00207739210270

DFT components:
N(Alpha)           :       24.000008831772 electrons
N(Beta)            :       23.000008837771 electrons
N(Total)           :       47.000017669543 electrons
E(X)               :      -11.532946622230 Eh       
E(C)               :       -0.711873208792 Eh       
E(XC)              :      -12.244819831022 Eh       

---------------
SCF CONVERGENCE
---------------

  Last Energy change         ...    4.0751e-10  Tolerance :   1.0000e-09
  Last MAX-Density change    ...    6.2657e-06  Tolerance :   1.0000e-08
  Last RMS-Density change    ...    3.9585e-07  Tolerance :   1.0000e-09
  Last DIIS Error            ...    1.9605e-03  Tolerance :   1.0000e-08
  Last Orbital Gradient      ...    2.5357e-06  Tolerance :   2.0000e-06
  Last Orbital Rotation      ...    2.1213e-05  Tolerance :   2.0000e-06


----------------------
UHF SPIN CONTAMINATION
----------------------

Warning: in a DFT calculation there is little theoretical justification to 
         calculate <S**2> as in Hartree-Fock theory. We will do it anyways
         but you should keep in mind that the values have only limited relevance

Expectation value of <S**2>     :     0.789887
Ideal value S*(S+1) for S=0.5   :     0.750000
Deviation                       :     0.039887

----------------
ORBITAL ENERGIES
----------------
                 SPIN UP ORBITALS
  NO   OCC          E(Eh)            E(eV) 
   0   1.0000     -20.031726      -545.0910 
   1   1.0000     -10.819477      -294.4129 
   2   1.0000     -10.815142      -294.2950 
   3   1.0000     -10.807394      -294.0841 
   4   1.0000     -10.805045      -294.0202 
   5   1.0000     -10.800891      -293.9072 
   6   1.0000      -1.217720       -33.1358 
   7   1.0000      -1.027287       -27.9539 
   8   1.0000      -0.872624       -23.7453 
   9   1.0000      -0.864129       -23.5141 
  10   1.0000      -0.707269       -19.2458 
  11   1.0000      -0.657262       -17.8850 
  12   1.0000      -0.613803       -16.7024 
  13   1.0000      -0.593657       -16.1542 
  14   1.0000      -0.561728       -15.2854 
  15   1.0000      -0.528072       -14.3696 
  16   1.0000      -0.494532       -13.4569 
  17   1.0000      -0.478350       -13.0166 
  18   1.0000      -0.444414       -12.0931 
  19   1.0000      -0.438992       -11.9456 
  20   1.0000      -0.434832       -11.8324 
  21   1.0000      -0.425385       -11.5753 
  22   1.0000      -0.423388       -11.5210 
  23   1.0000      -0.298786        -8.1304 
  24   0.0000       0.094712         2.5772 
  25   0.0000       0.107108         2.9146 
  26   0.0000       0.125143         3.4053 
  27   0.0000       0.142653         3.8818 
  28   0.0000       0.146563         3.9882 
  29   0.0000       0.162202         4.4137 
  30   0.0000       0.168784         4.5928 
  31   0.0000       0.170821         4.6483 
  32   0.0000       0.193889         5.2760 
  33   0.0000       0.208532         5.6744 
  34   0.0000       0.247406         6.7323 

                 SPIN DOWN ORBITALS
  NO   OCC          E(Eh)            E(eV) 
   0   1.0000     -19.999254      -544.2074 
   1   1.0000     -10.821628      -294.4715 
   2   1.0000     -10.808607      -294.1172 
   3   1.0000     -10.807902      -294.0980 
   4   1.0000     -10.804759      -294.0124 
   5   1.0000     -10.800874      -293.9067 
   6   1.0000      -1.111619       -30.2487 
   7   1.0000      -1.020977       -27.7822 
   8   1.0000      -0.868063       -23.6212 
   9   1.0000      -0.862007       -23.4564 
  10   1.0000      -0.705704       -19.2032 
  11   1.0000      -0.653455       -17.7814 
  12   1.0000      -0.611887       -16.6503 
  13   1.0000      -0.579528       -15.7698 
  14   1.0000      -0.536992       -14.6123 
  15   1.0000      -0.492360       -13.3978 
  16   1.0000      -0.476877       -12.9765 
  17   1.0000      -0.439876       -11.9696 
  18   1.0000      -0.435336       -11.8461 
  19   1.0000      -0.429975       -11.7002 
  20   1.0000      -0.423430       -11.5221 
  21   1.0000      -0.403768       -10.9871 
  22   1.0000      -0.313177        -8.5220 
  23   0.0000       0.025409         0.6914 
  24   0.0000       0.097955         2.6655 
  25   0.0000       0.118626         3.2280 
  26   0.0000       0.127943         3.4815 
  27   0.0000       0.142846         3.8870 
  28   0.0000       0.147626         4.0171 
  29   0.0000       0.163092         4.4379 
  30   0.0000       0.169409         4.6099 
  31   0.0000       0.173770         4.7285 
  32   0.0000       0.194282         5.2867 
  33   0.0000       0.210457         5.7268 
*Only the first 10 virtual orbitals were printed.

                    ********************************
                    * MULLIKEN POPULATION ANALYSIS *
                    ********************************

--------------------------------------------
MULLIKEN ATOMIC CHARGES AND SPIN POPULATIONS
--------------------------------------------
   0 C :   -0.109326    0.020576
   1 C :   -0.126610   -0.000629
   2 C :   -0.084605   -0.034466
   3 C :   -0.201305    0.337766
   4 C :   -0.087572   -0.175837
   5 H :    0.071322   -0.009657
   6 H :    0.081816   -0.003430
   7 H :    0.075358   -0.000502
   8 H :    0.083467   -0.000236
   9 H :    0.068467    0.010611
  10 H :    0.070288    0.016649
  11 H :    0.115630   -0.024692
  12 H :    0.127722    0.015772
  13 O :   -0.293764    0.870251
  14 H :    0.209112   -0.022175
Sum of atomic charges         :    0.0000000
Sum of atomic spin populations:    1.0000000

-----------------------------------------------------
MULLIKEN REDUCED ORBITAL CHARGES AND SPIN POPULATIONS
-----------------------------------------------------
CHARGE
  0 C s       :     3.107485  s :     3.107485
      pz      :     1.028618  p :     2.886873
      px      :     0.983763
      py      :     0.874492
      dz2     :     0.019026  d :     0.108901
      dxz     :     0.028698
      dyz     :     0.014873
      dx2y2   :     0.025024
      dxy     :     0.021280
      f0      :     0.000738  f :     0.006066
      f+1     :     0.000751
      f-1     :     0.000561
      f+2     :     0.000451
      f-2     :     0.000790
      f+3     :     0.001450
      f-3     :     0.001325

  1 C s       :     3.118230  s :     3.118230
      pz      :     1.055687  p :     2.898962
      px      :     0.873887
      py      :     0.969388
      dz2     :     0.023403  d :     0.103319
      dxz     :     0.015225
      dyz     :     0.018426
      dx2y2   :     0.026586
      dxy     :     0.019679
      f0      :     0.000926  f :     0.006098
      f+1     :     0.000565
      f-1     :     0.000461
      f+2     :     0.000579
      f-2     :     0.000790
      f+3     :     0.001362
      f-3     :     0.001415

  2 C s       :     3.094908  s :     3.094908
      pz      :     1.019340  p :     2.871683
      px      :     0.973721
      py      :     0.878621
      dz2     :     0.017326  d :     0.111862
      dxz     :     0.031585
      dyz     :     0.016860
      dx2y2   :     0.024967
      dxy     :     0.021124
      f0      :     0.000729  f :     0.006152
      f+1     :     0.000829
      f-1     :     0.000540
      f+2     :     0.000480
      f-2     :     0.000807
      f+3     :     0.001441
      f-3     :     0.001326

  3 C s       :     3.196419  s :     3.196419
      pz      :     0.958245  p :     2.886831
      px      :     0.954663
      py      :     0.973923
      dz2     :     0.006302  d :     0.110256
      dxz     :     0.021568
      dyz     :     0.008526
      dx2y2   :     0.030398
      dxy     :     0.043463
      f0      :     0.001153  f :     0.007798
      f+1     :     0.000638
      f-1     :     0.000862
      f+2     :     0.000989
      f-2     :     0.000286
      f+3     :     0.001481
      f-3     :     0.002389

  4 C s       :     3.130578  s :     3.130578
      pz      :     0.885029  p :     2.824419
      px      :     0.959637
      py      :     0.979753
      dz2     :     0.012185  d :     0.124367
      dxz     :     0.025921
      dyz     :     0.009578
      dx2y2   :     0.031981
      dxy     :     0.044701
      f0      :     0.001402  f :     0.008208
      f+1     :     0.000620
      f-1     :     0.000878
      f+2     :     0.001085
      f-2     :     0.000304
      f+3     :     0.001489
      f-3     :     0.002430

  5 H s       :     0.887589  s :     0.887589
      pz      :     0.018907  p :     0.039002
      px      :     0.011131
      py      :     0.008963
      dz2     :     0.000591  d :     0.002088
      dxz     :     0.000646
      dyz     :     0.000595
      dx2y2   :     0.000119
      dxy     :     0.000137

  6 H s       :     0.876797  s :     0.876797
      pz      :     0.013315  p :     0.039286
      px      :     0.017036
      py      :     0.008935
      dz2     :     0.000564  d :     0.002102
      dxz     :     0.000417
      dyz     :     0.000273
      dx2y2   :     0.000347
      dxy     :     0.000501

  7 H s       :     0.883088  s :     0.883088
      pz      :     0.011645  p :     0.039473
      px      :     0.009454
      py      :     0.018374
      dz2     :     0.000463  d :     0.002081
      dxz     :     0.000150
      dyz     :     0.000454
      dx2y2   :     0.000337
      dxy     :     0.000677

  8 H s       :     0.875297  s :     0.875297
      pz      :     0.020407  p :     0.039118
      px      :     0.008732
      py      :     0.009979
      dz2     :     0.000541  d :     0.002118
      dxz     :     0.000732
      dyz     :     0.000752
      dx2y2   :     0.000033
      dxy     :     0.000060

  9 H s       :     0.889520  s :     0.889520
      pz      :     0.013533  p :     0.039906
      px      :     0.017019
      py      :     0.009353
      dz2     :     0.000586  d :     0.002107
      dxz     :     0.000409
      dyz     :     0.000305
      dx2y2   :     0.000336
      dxy     :     0.000471

 10 H s       :     0.888803  s :     0.888803
      pz      :     0.018313  p :     0.038838
      px      :     0.011561
      py      :     0.008964
      dz2     :     0.000600  d :     0.002071
      dxz     :     0.000603
      dyz     :     0.000566
      dx2y2   :     0.000142
      dxy     :     0.000159

 11 H s       :     0.846302  s :     0.846302
      pz      :     0.010405  p :     0.036150
      px      :     0.010267
      py      :     0.015478
      dz2     :     0.000125  d :     0.001918
      dxz     :     0.000268
      dyz     :     0.000321
      dx2y2   :     0.000774
      dxy     :     0.000429

 12 H s       :     0.835323  s :     0.835323
      pz      :     0.008602  p :     0.035109
      px      :     0.010472
      py      :     0.016035
      dz2     :     0.000139  d :     0.001846
      dxz     :     0.000222
      dyz     :     0.000269
      dx2y2   :     0.000793
      dxy     :     0.000424

 13 O s       :     3.873535  s :     3.873535
      pz      :     1.133122  p :     4.407531
      px      :     1.774123
      py      :     1.500287
      dz2     :     0.003969  d :     0.012327
      dxz     :     0.000593
      dyz     :     0.000929
      dx2y2   :     0.002582
      dxy     :     0.004254
      f0      :     0.000011  f :     0.000371
      f+1     :     0.000024
      f-1     :     0.000013
      f+2     :     0.000018
      f-2     :     0.000028
      f+3     :     0.000208
      f-3     :     0.000068

 14 H s       :     0.697213  s :     0.697213
      pz      :     0.019274  p :     0.084925
      px      :     0.035915
      py      :     0.029737
      dz2     :     0.000860  d :     0.008750
      dxz     :     0.000494
      dyz     :     0.001387
      dx2y2   :     0.003238
      dxy     :     0.002770


SPIN
  0 C s       :     0.005129  s :     0.005129
      pz      :     0.007539  p :     0.018631
      px      :     0.003826
      py      :     0.007267
      dz2     :     0.000107  d :    -0.003041
      dxz     :    -0.000959
      dyz     :    -0.002081
      dx2y2   :    -0.000096
      dxy     :    -0.000013
      f0      :    -0.000029  f :    -0.000143
      f+1     :    -0.000008
      f-1     :     0.000001
      f+2     :    -0.000071
      f-2     :    -0.000022
      f+3     :    -0.000003
      f-3     :    -0.000012

  1 C s       :    -0.001135  s :    -0.001135
      pz      :     0.000757  p :     0.000427
      px      :     0.000290
      py      :    -0.000620
      dz2     :     0.000060  d :     0.000097
      dxz     :    -0.000035
      dyz     :    -0.000009
      dx2y2   :     0.000091
      dxy     :    -0.000010
      f0      :    -0.000001  f :    -0.000018
      f+1     :    -0.000000
      f-1     :     0.000002
      f+2     :    -0.000009
      f-2     :    -0.000002
      f+3     :    -0.000004
      f-3     :    -0.000004

  2 C s       :    -0.006133  s :    -0.006133
      pz      :    -0.013358  p :    -0.033981
      px      :    -0.004692
      py      :    -0.015932
      dz2     :     0.000025  d :     0.005296
      dxz     :     0.001531
      dyz     :     0.003693
      dx2y2   :    -0.000013
      dxy     :     0.000060
      f0      :     0.000124  f :     0.000352
      f+1     :     0.000011
      f-1     :     0.000000
      f+2     :     0.000125
      f-2     :     0.000062
      f+3     :     0.000007
      f-3     :     0.000023

  3 C s       :     0.029688  s :     0.029688
      pz      :     0.262074  p :     0.309184
      px      :     0.025139
      py      :     0.021971
      dz2     :    -0.000727  d :    -0.000562
      dxz     :    -0.002194
      dyz     :     0.000226
      dx2y2   :     0.000801
      dxy     :     0.001331
      f0      :    -0.000123  f :    -0.000544
      f+1     :    -0.000136
      f-1     :    -0.000205
      f+2     :    -0.000082
      f-2     :     0.000009
      f+3     :    -0.000004
      f-3     :    -0.000002

  4 C s       :    -0.018914  s :    -0.018914
      pz      :    -0.128651  p :    -0.164454
      px      :    -0.021298
      py      :    -0.014505
      dz2     :     0.002714  d :     0.006387
      dxz     :     0.004715
      dyz     :    -0.000268
      dx2y2   :     0.000246
      dxy     :    -0.001020
      f0      :     0.000622  f :     0.001143
      f+1     :     0.000062
      f-1     :     0.000084
      f+2     :     0.000290
      f-2     :    -0.000001
      f+3     :     0.000055
      f-3     :     0.000032

  5 H s       :    -0.009890  s :    -0.009890
      pz      :     0.000034  p :     0.000240
      px      :     0.000085
      py      :     0.000121
      dz2     :    -0.000007  d :    -0.000007
      dxz     :    -0.000003
      dyz     :     0.000002
      dx2y2   :    -0.000001
      dxy     :     0.000001

  6 H s       :    -0.003440  s :    -0.003440
      pz      :     0.000009  p :     0.000005
      px      :    -0.000004
      py      :    -0.000000
      dz2     :     0.000001  d :     0.000005
      dxz     :    -0.000001
      dyz     :     0.000002
      dx2y2   :     0.000001
      dxy     :     0.000002

  7 H s       :    -0.000566  s :    -0.000566
      pz      :     0.000010  p :     0.000061
      px      :     0.000002
      py      :     0.000049
      dz2     :     0.000001  d :     0.000003
      dxz     :     0.000000
      dyz     :     0.000000
      dx2y2   :     0.000001
      dxy     :     0.000000

  8 H s       :    -0.000240  s :    -0.000240
      pz      :    -0.000005  p :     0.000004
      px      :    -0.000002
      py      :     0.000011
      dz2     :    -0.000001  d :    -0.000000
      dxz     :     0.000000
      dyz     :     0.000001
      dx2y2   :    -0.000001
      dxy     :    -0.000000

  9 H s       :     0.010679  s :     0.010679
      pz      :    -0.000064  p :    -0.000071
      px      :     0.000020
      py      :    -0.000027
      dz2     :    -0.000001  d :     0.000003
      dxz     :     0.000002
      dyz     :    -0.000002
      dx2y2   :     0.000004
      dxy     :    -0.000000

 10 H s       :     0.016418  s :     0.016418
      pz      :     0.000178  p :     0.000223
      px      :     0.000044
      py      :     0.000001
      dz2     :     0.000008  d :     0.000009
      dxz     :     0.000003
      dyz     :    -0.000003
      dx2y2   :    -0.000000
      dxy     :     0.000000

 11 H s       :    -0.027743  s :    -0.027743
      pz      :     0.003189  p :     0.002821
      px      :    -0.000176
      py      :    -0.000192
      dz2     :    -0.000013  d :     0.000230
      dxz     :     0.000072
      dyz     :     0.000129
      dx2y2   :     0.000018
      dxy     :     0.000024

 12 H s       :     0.017578  s :     0.017578
      pz      :    -0.001939  p :    -0.001718
      px      :     0.000198
      py      :     0.000022
      dz2     :     0.000010  d :    -0.000088
      dxz     :    -0.000023
      dyz     :    -0.000072
      dx2y2   :    -0.000002
      dxy     :    -0.000000

 13 O s       :     0.009051  s :     0.009051
      pz      :     0.800043  p :     0.861322
      px      :     0.045316
      py      :     0.015963
      dz2     :    -0.000568  d :     0.000035
      dxz     :    -0.000037
      dyz     :     0.000439
      dx2y2   :     0.000060
      dxy     :     0.000140
      f0      :    -0.000004  f :    -0.000157
      f+1     :    -0.000023
      f-1     :    -0.000139
      f+2     :     0.000013
      f-2     :    -0.000001
      f+3     :    -0.000003
      f-3     :     0.000000

 14 H s       :    -0.028847  s :    -0.028847
      pz      :     0.008021  p :     0.005431
      px      :    -0.001668
      py      :    -0.000922
      dz2     :    -0.000094  d :     0.001242
      dxz     :     0.000289
      dyz     :     0.000948
      dx2y2   :    -0.000027
      dxy     :     0.000126



                     *******************************
                     * LOEWDIN POPULATION ANALYSIS *
                     *******************************

-------------------------------------------
LOEWDIN ATOMIC CHARGES AND SPIN POPULATIONS
-------------------------------------------
   0 C :   -0.015327   -0.006284
   1 C :    0.004308   -0.000853
   2 C :   -0.018091    0.012101
   3 C :   -0.005343    0.200004
   4 C :   -0.000359   -0.052487
   5 H :    0.014060   -0.004614
   6 H :    0.016825   -0.001776
   7 H :    0.004269   -0.000230
   8 H :    0.015858   -0.000240
   9 H :    0.013124    0.004306
  10 H :    0.015371    0.008186
  11 H :   -0.001229    0.012674
  12 H :    0.006496   -0.006254
  13 O :    0.161025    0.788844
  14 H :   -0.210988    0.046622

----------------------------------------------------
LOEWDIN REDUCED ORBITAL CHARGES AND SPIN POPULATIONS
----------------------------------------------------
CHARGE
  0 C s       :     2.687733  s :     2.687733
      pz      :     1.000406  p :     2.880857
      px      :     0.951242
      py      :     0.929209
      dz2     :     0.070309  d :     0.403831
      dxz     :     0.093772
      dyz     :     0.051765
      dx2y2   :     0.098381
      dxy     :     0.089604
      f0      :     0.004648  f :     0.042905
      f+1     :     0.004384
      f-1     :     0.005143
      f+2     :     0.004697
      f-2     :     0.005585
      f+3     :     0.009402
      f-3     :     0.009047

  1 C s       :     2.691400  s :     2.691400
      pz      :     1.008424  p :     2.872287
      px      :     0.911014
      py      :     0.952848
      dz2     :     0.085729  d :     0.390556
      dxz     :     0.053754
      dyz     :     0.063477
      dx2y2   :     0.099433
      dxy     :     0.088162
      f0      :     0.005782  f :     0.041448
      f+1     :     0.004757
      f-1     :     0.002605
      f+2     :     0.005599
      f-2     :     0.006114
      f+3     :     0.009288
      f-3     :     0.007304

  2 C s       :     2.689325  s :     2.689325
      pz      :     0.998098  p :     2.879252
      px      :     0.949011
      py      :     0.932143
      dz2     :     0.063110  d :     0.406761
      dxz     :     0.102259
      dyz     :     0.055720
      dx2y2   :     0.096588
      dxy     :     0.089084
      f0      :     0.004448  f :     0.042753
      f+1     :     0.004790
      f-1     :     0.005000
      f+2     :     0.004710
      f-2     :     0.005540
      f+3     :     0.009405
      f-3     :     0.008858

  3 C s       :     2.736788  s :     2.736788
      pz      :     0.824457  p :     2.826468
      px      :     1.040175
      py      :     0.961835
      dz2     :     0.030991  d :     0.398492
      dxz     :     0.057154
      dyz     :     0.034750
      dx2y2   :     0.113321
      dxy     :     0.162276
      f0      :     0.002582  f :     0.043596
      f+1     :     0.003718
      f-1     :     0.003028
      f+2     :     0.006738
      f-2     :     0.001905
      f+3     :     0.008626
      f-3     :     0.016998

  4 C s       :     2.737501  s :     2.737501
      pz      :     0.773539  p :     2.789119
      px      :     1.046322
      py      :     0.969259
      dz2     :     0.048840  d :     0.427787
      dxz     :     0.066807
      dyz     :     0.036350
      dx2y2   :     0.114175
      dxy     :     0.161615
      f0      :     0.004155  f :     0.045952
      f+1     :     0.003725
      f-1     :     0.003178
      f+2     :     0.007238
      f-2     :     0.002025
      f+3     :     0.008544
      f-3     :     0.017087

  5 H s       :     0.807733  s :     0.807733
      pz      :     0.066455  p :     0.149424
      px      :     0.042749
      py      :     0.040219
      dz2     :     0.009482  d :     0.028783
      dxz     :     0.008829
      dyz     :     0.007469
      dx2y2   :     0.001352
      dxy     :     0.001650

  6 H s       :     0.806432  s :     0.806432
      pz      :     0.052572  p :     0.147719
      px      :     0.056623
      py      :     0.038524
      dz2     :     0.007533  d :     0.029024
      dxz     :     0.007385
      dyz     :     0.003237
      dx2y2   :     0.005030
      dxy     :     0.005838

  7 H s       :     0.817643  s :     0.817643
      pz      :     0.047708  p :     0.149321
      px      :     0.039397
      py      :     0.062216
      dz2     :     0.006322  d :     0.028767
      dxz     :     0.001748
      dyz     :     0.007577
      dx2y2   :     0.005854
      dxy     :     0.007265

  8 H s       :     0.804634  s :     0.804634
      pz      :     0.071576  p :     0.149994
      px      :     0.038473
      py      :     0.039946
      dz2     :     0.009945  d :     0.029514
      dxz     :     0.008771
      dyz     :     0.009859
      dx2y2   :     0.000245
      dxy     :     0.000694

  9 H s       :     0.810509  s :     0.810509
      pz      :     0.053626  p :     0.147695
      px      :     0.054841
      py      :     0.039229
      dz2     :     0.007805  d :     0.028672
      dxz     :     0.007282
      dyz     :     0.003619
      dx2y2   :     0.004640
      dxy     :     0.005326

 10 H s       :     0.807682  s :     0.807682
      pz      :     0.065186  p :     0.148516
      px      :     0.043089
      py      :     0.040242
      dz2     :     0.009322  d :     0.028431
      dxz     :     0.008450
      dyz     :     0.007056
      dx2y2   :     0.001662
      dxy     :     0.001942

 11 H s       :     0.819922  s :     0.819922
      pz      :     0.044054  p :     0.153761
      px      :     0.046014
      py      :     0.063693
      dz2     :     0.002506  d :     0.027545
      dxz     :     0.003215
      dyz     :     0.005026
      dx2y2   :     0.008935
      dxy     :     0.007864

 12 H s       :     0.815730  s :     0.815730
      pz      :     0.038997  p :     0.150314
      px      :     0.046445
      py      :     0.064871
      dz2     :     0.002711  d :     0.027460
      dxz     :     0.002895
      dyz     :     0.004595
      dx2y2   :     0.009174
      dxy     :     0.008085

 13 O s       :     3.489950  s :     3.489950
      pz      :     1.073454  p :     4.324877
      px      :     1.695751
      py      :     1.555672
      dz2     :     0.007620  d :     0.022341
      dxz     :     0.000788
      dyz     :     0.000949
      dx2y2   :     0.004154
      dxy     :     0.008830
      f0      :     0.000275  f :     0.001807
      f+1     :     0.000151
      f-1     :     0.000255
      f+2     :     0.000075
      f-2     :     0.000120
      f+3     :     0.000626
      f-3     :     0.000305

 14 H s       :     0.723706  s :     0.723706
      pz      :     0.068402  p :     0.384586
      px      :     0.139150
      py      :     0.177034
      dz2     :     0.009211  d :     0.102696
      dxz     :     0.006766
      dyz     :     0.019856
      dx2y2   :     0.037054
      dxy     :     0.029810


SPIN
  0 C s       :     0.000527  s :     0.000527
      pz      :     0.000952  p :     0.004605
      px      :     0.000738
      py      :     0.002915
      dz2     :    -0.001047  d :    -0.010515
      dxz     :    -0.002019
      dyz     :    -0.006465
      dx2y2   :    -0.000405
      dxy     :    -0.000579
      f0      :    -0.000226  f :    -0.000901
      f+1     :    -0.000027
      f-1     :     0.000003
      f+2     :    -0.000347
      f-2     :    -0.000172
      f+3     :    -0.000065
      f-3     :    -0.000068

  1 C s       :    -0.000127  s :    -0.000127
      pz      :    -0.000000  p :     0.000066
      px      :     0.000141
      py      :    -0.000075
      dz2     :    -0.000124  d :    -0.000735
      dxz     :    -0.000069
      dyz     :    -0.000260
      dx2y2   :    -0.000155
      dxy     :    -0.000126
      f0      :    -0.000000  f :    -0.000058
      f+1     :    -0.000004
      f-1     :    -0.000001
      f+2     :    -0.000010
      f-2     :    -0.000011
      f+3     :    -0.000030
      f-3     :    -0.000002

  2 C s       :    -0.001391  s :    -0.001391
      pz      :    -0.002402  p :    -0.010116
      px      :    -0.001708
      py      :    -0.006005
      dz2     :     0.000607  d :     0.021245
      dxz     :     0.005955
      dyz     :     0.012766
      dx2y2   :     0.001045
      dxy     :     0.000872
      f0      :     0.000781  f :     0.002363
      f+1     :     0.000055
      f-1     :     0.000041
      f+2     :     0.000813
      f-2     :     0.000433
      f+3     :     0.000142
      f-3     :     0.000098

  3 C s       :     0.009288  s :     0.009288
      pz      :     0.192036  p :     0.205439
      px      :     0.007420
[...]
     37      -0.013012   0.008004  -0.002413  -0.015822  -0.019629  -0.004011
     38      -0.002049   0.001199   0.000593  -0.001897  -0.002290  -0.000197
     39       0.000004   0.000065   0.000014  -0.000093   0.000010  -0.000002
     40       0.000001   0.000010  -0.000228  -0.000004  -0.000073  -0.000282
     41       0.000000  -0.000016   0.000125   0.000010   0.000079   0.000188
     42       0.000067  -0.000200  -0.000116  -0.000273   0.000101   0.000262
     43      -0.000277  -0.000163   0.001693   0.000175  -0.000093   0.001431
     44       0.000672   0.000182  -0.000597  -0.000169   0.000679  -0.000483
                 42         43         44    
      0      -0.002186   0.003003   0.000058
      1      -0.001472   0.002179   0.000001
      2      -0.000727   0.000209  -0.000078
      3       0.000397   0.000029  -0.000003
      4       0.000077   0.001786  -0.000129
      5      -0.000112   0.000538  -0.000181
      6      -0.002147  -0.003045  -0.000097
      7       0.001510   0.002202  -0.000007
      8       0.000923   0.000553  -0.000060
      9      -0.033592  -0.041905   0.000420
     10      -0.049346  -0.049804   0.000018
     11      -0.000675  -0.000354  -0.000182
     12      -0.032954   0.041868  -0.000441
     13       0.048972  -0.050306   0.000036
     14       0.004034  -0.004618  -0.000144
     15       0.001305  -0.004074  -0.000036
     16       0.002594  -0.004000   0.000572
     17      -0.005360   0.010752   0.000109
     18       0.017706  -0.020425  -0.000028
     19       0.004906  -0.005716   0.000331
     20       0.014670  -0.014825  -0.000129
     21      -0.000723   0.000232   0.000068
     22      -0.000970  -0.009265   0.000446
     23       0.000603   0.004737   0.000259
     24      -0.000376  -0.000482   0.000142
     25       0.000150  -0.002412   0.001208
     26       0.000670  -0.009316   0.002136
     27       0.016335   0.019669   0.000208
     28      -0.005014  -0.005899   0.000253
     29      -0.016671  -0.017659  -0.000338
     30       0.002076   0.005296   0.000051
     31      -0.002759  -0.004110   0.000457
     32       0.005664   0.010727   0.000253
     33       0.405094   0.404874  -0.000181
     34       0.579558   0.571402   0.000508
     35       0.007457   0.006828   0.000032
     36       0.397888  -0.404671   0.000372
     37      -0.575353   0.577027   0.000337
     38      -0.048142   0.048142  -0.000023
     39       0.000192   0.000021  -0.000398
     40       0.000010   0.000123  -0.063060
     41      -0.000019   0.000438  -0.001065
     42      -0.002511  -0.000167   0.006466
     43      -0.000178   0.000399   0.997735
     44       0.000370  -0.002575   0.022285


-----------
IR SPECTRUM
-----------

 Mode   freq       eps      Int      T**2         TX        TY        TZ
       cm**-1   L/(mol*cm) km/mol    a.u.
----------------------------------------------------------------------------
  6:     88.64   0.006724   33.98  0.023672  (-0.153391  0.002945 -0.011602)
  7:    100.56   0.001698    8.58  0.005269  (-0.000962  0.021974 -0.069174)
  8:    125.90   0.000882    4.45  0.002185  ( 0.001808 -0.018802  0.042757)
  9:    168.36   0.000736    3.72  0.001363  ( 0.015087 -0.005067  0.033319)
 10:    178.92   0.008334   42.12  0.014537  (-0.120530 -0.003055 -0.000222)
 11:    407.72   0.000008    0.04  0.000006  (-0.002241 -0.000015 -0.000986)
 12:    543.67   0.011956   60.42  0.006863  ( 0.001286  0.006851 -0.082546)
 13:    615.44   0.002189   11.06  0.001110  ( 0.001677 -0.003904  0.033047)
 14:    732.31   0.008563   43.28  0.003649  (-0.003120  0.004060 -0.060190)
 15:    781.05   0.000026    0.13  0.000010  ( 0.003192 -0.000073  0.000229)
 16:    831.39   0.000499    2.52  0.000187  ( 0.000561  0.003442  0.013237)
 17:    893.61   0.000295    1.49  0.000103  ( 0.010127  0.000043 -0.000666)
 18:    919.93   0.000072    0.36  0.000024  (-0.000235 -0.003505 -0.003471)
 19:    927.85   0.001879    9.50  0.000632  ( 0.025108 -0.000054 -0.001255)
 20:    980.11   0.000037    0.19  0.000012  (-0.003424 -0.000229  0.000010)
 21:    987.73   0.000333    1.68  0.000105  (-0.000326 -0.007473 -0.007009)
 22:   1052.50   0.000347    1.76  0.000103  (-0.010112  0.000067  0.000846)
 23:   1074.76   0.002256   11.40  0.000655  ( 0.001218 -0.000783  0.025551)
 24:   1129.94   0.000551    2.79  0.000152  (-0.000568  0.000383 -0.012322)
 25:   1163.37   0.000277    1.40  0.000074  ( 0.008599 -0.000055 -0.000631)
 26:   1237.02   0.000000    0.00  0.000000  ( 0.000170  0.000105  0.000247)
 27:   1244.90   0.000471    2.38  0.000118  ( 0.000487  0.003949  0.010105)
 28:   1318.58   0.000264    1.33  0.000062  (-0.007896 -0.000030  0.000238)
 29:   1335.03   0.000048    0.24  0.000011  (-0.003329  0.000055  0.000354)
 30:   1341.32   0.000296    1.50  0.000069  (-0.000180 -0.008039 -0.002056)
 31:   1395.88   0.000383    1.93  0.000086  (-0.009224  0.000127  0.000663)
 32:   1486.04   0.000722    3.65  0.000152  (-0.000656 -0.000756 -0.012273)
 33:   1491.19   0.000689    3.48  0.000144  (-0.011983  0.000026  0.000763)
 34:   1512.92   0.000730    3.69  0.000151  ( 0.000329  0.010955  0.005522)
 35:   1632.05   0.011028   55.73  0.002109  ( 0.002069 -0.017849  0.042260)
 36:   3031.14   0.005294   26.76  0.000545  (-0.001053  0.006719 -0.022334)
 37:   3032.96   0.008693   43.93  0.000894  (-0.029899 -0.000308  0.000641)
 38:   3084.62   0.004993   25.23  0.000505  (-0.000095  0.022313 -0.002681)
 39:   3099.43   0.004333   21.90  0.000436  ( 0.020869 -0.000298 -0.000778)
 40:   3100.23   0.003596   18.17  0.000362  ( 0.000902  0.016424  0.009562)
 41:   3136.95   0.004730   23.90  0.000471  ( 0.001060 -0.008385  0.019977)
 42:   3194.35   0.001140    5.76  0.000111  (-0.010548 -0.000242  0.000009)
 43:   3217.74   0.004022   20.32  0.000390  (-0.000443 -0.017758 -0.008630)
 44:   3789.04   0.004399   22.23  0.000362  (-0.000680  0.014150 -0.012712)

* The epsilon (eps) is given for a Dirac delta lineshape.
** The dipole moment derivative (T) already includes vibrational overlap.

The first frequency considered to be a vibration is 6
The total number of vibrations considered is 39


--------------------------
THERMOCHEMISTRY AT 298.15K
--------------------------

Temperature         ...   298.15 K
Pressure            ...     1.00 atm
Total Mass          ...    85.13 AMU
Quasi RRHO          ...     True
Cut-Off Frequency   ...     1.00 cm^-1

Throughout the following assumptions are being made:
  (1) The electronic state is orbitally nondegenerate
      but the spin degeneracy is treated
  (2) There are no thermally accessible electronically excited states
  (3) Hindered rotations indicated by low frequency modes are not
      treated as such but are treated as vibrations and this may
      cause some error
  (4) All equations used are the standard statistical mechanics
      equations for an ideal gas
  (5) All vibrations are strictly harmonic

freq.      88.64  E(vib)   ...       0.47 
freq.     100.56  E(vib)   ...       0.46 
freq.     125.90  E(vib)   ...       0.43 
freq.     168.36  E(vib)   ...       0.38 
freq.     178.92  E(vib)   ...       0.37 
freq.     407.72  E(vib)   ...       0.19 
freq.     543.67  E(vib)   ...       0.12 
freq.     615.44  E(vib)   ...       0.10 
freq.     732.31  E(vib)   ...       0.06 
freq.     781.05  E(vib)   ...       0.05 
freq.     831.39  E(vib)   ...       0.04 
freq.     893.61  E(vib)   ...       0.03 
freq.     919.93  E(vib)   ...       0.03 
freq.     927.85  E(vib)   ...       0.03 
freq.     980.11  E(vib)   ...       0.02 
freq.     987.73  E(vib)   ...       0.02 
freq.    1052.50  E(vib)   ...       0.02 
freq.    1074.76  E(vib)   ...       0.02 
freq.    1129.94  E(vib)   ...       0.01 
freq.    1163.37  E(vib)   ...       0.01 
freq.    1237.02  E(vib)   ...       0.01 
freq.    1244.90  E(vib)   ...       0.01 
freq.    1318.58  E(vib)   ...       0.01 
freq.    1335.03  E(vib)   ...       0.01 
freq.    1341.32  E(vib)   ...       0.01 
freq.    1395.88  E(vib)   ...       0.00 
freq.    1486.04  E(vib)   ...       0.00 
freq.    1491.19  E(vib)   ...       0.00 
freq.    1512.92  E(vib)   ...       0.00 
freq.    1632.05  E(vib)   ...       0.00 
freq.    3031.14  E(vib)   ...       0.00 
freq.    3032.96  E(vib)   ...       0.00 
freq.    3084.62  E(vib)   ...       0.00 
freq.    3099.43  E(vib)   ...       0.00 
freq.    3100.23  E(vib)   ...       0.00 
freq.    3136.95  E(vib)   ...       0.00 
freq.    3194.35  E(vib)   ...       0.00 
freq.    3217.74  E(vib)   ...       0.00 
freq.    3789.04  E(vib)   ...       0.00 

------------
INNER ENERGY
------------

The inner energy is: U= E(el) + E(ZPE) + E(vib) + E(rot) + E(trans)
    E(el)   - is the total energy from the electronic structure calculation
              = E(kin-el) + E(nuc-el) + E(el-el) + E(nuc-nuc)
    E(ZPE)  - the the zero temperature vibrational energy from the frequency calculation
    E(vib)  - the the finite temperature correction to E(ZPE) due to population
              of excited vibrational states
    E(rot)  - is the rotational thermal energy
    E(trans)- is the translational thermal energy

Summary of contributions to the inner energy U:
Electronic energy                ...   -270.66484510 Eh
Zero point energy                ...      0.12845476 Eh      80.61 kcal/mol
Thermal vibrational correction   ...      0.00469953 Eh       2.95 kcal/mol
Thermal rotational correction    ...      0.00141627 Eh       0.89 kcal/mol
Thermal translational correction ...      0.00141627 Eh       0.89 kcal/mol
-----------------------------------------------------------------------
Total thermal energy                   -270.52885828 Eh


Summary of corrections to the electronic energy:
(perhaps to be used in another calculation)
Total thermal correction                  0.00753207 Eh       4.73 kcal/mol
Non-thermal (ZPE) correction              0.12845476 Eh      80.61 kcal/mol
-----------------------------------------------------------------------
Total correction                          0.13598683 Eh      85.33 kcal/mol


--------
ENTHALPY
--------

The enthalpy is H = U + kB*T
                kB is Boltzmann's constant
Total thermal energy              ...   -270.52885828 Eh 
Thermal Enthalpy correction       ...      0.00094421 Eh       0.59 kcal/mol
-----------------------------------------------------------------------
Total Enthalpy                    ...   -270.52791407 Eh


Note: Only C1 symmetry has been detected, increase convergence thresholds 
      if your molecule has a higher symmetry. Symmetry factor of 1.0 is   
      used for the rotational entropy correction. 
 

Note: Rotational entropy computed according to Herzberg 
Infrared and Raman Spectra, Chapter V,1, Van Nostrand Reinhold, 1945 
Point Group:  C1, Symmetry Number:   1  
Rotational constants in cm-1:     0.145383     0.104109     0.096427 

Vibrational entropy computed according to the QRRHO of S. Grimme
Chem.Eur.J. 2012 18 9955 using a reference frequency of 100.0 cm-1


-------
ENTROPY
-------

The entropy contributions are T*S = T*(S(el)+S(vib)+S(rot)+S(trans))
     S(el)   - electronic entropy
     S(vib)  - vibrational entropy
     S(rot)  - rotational entropy
     S(trans)- translational entropy
The entropies will be listed as multiplied by the temperature to get
units of energy

Electronic entropy                ...      0.00065446 Eh      0.41 kcal/mol
Vibrational entropy               ...      0.00841671 Eh      5.28 kcal/mol
Rotational entropy                ...      0.01259340 Eh      7.90 kcal/mol
Translational entropy             ...      0.01864317 Eh     11.70 kcal/mol
-----------------------------------------------------------------------
Final entropy term                ...      0.04030773 Eh     25.29 kcal/mol

In case the symmetry of your molecule has not been determined correctly
or in case you have a reason to use a different symmetry number we print 
out the resulting rotational entropy values for sn=1,12:

 non-linear molecules -----------------------------------
|  sn= 1 | S(rot)=       0.01259340 Eh      7.90 kcal/mol|
|  sn= 2 | S(rot)=       0.01193895 Eh      7.49 kcal/mol|
|  sn= 3 | S(rot)=       0.01155611 Eh      7.25 kcal/mol|
|  sn= 4 | S(rot)=       0.01128449 Eh      7.08 kcal/mol|
|  sn= 5 | S(rot)=       0.01107380 Eh      6.95 kcal/mol|
|  sn= 6 | S(rot)=       0.01090166 Eh      6.84 kcal/mol|
|  sn= 7 | S(rot)=       0.01075611 Eh      6.75 kcal/mol|
|  sn= 8 | S(rot)=       0.01063003 Eh      6.67 kcal/mol|
|  sn= 9 | S(rot)=       0.01051883 Eh      6.60 kcal/mol|
|  sn=10 | S(rot)=       0.01041935 Eh      6.54 kcal/mol|
|  sn=11 | S(rot)=       0.01032936 Eh      6.48 kcal/mol|
|  sn=12 | S(rot)=       0.01024720 Eh      6.43 kcal/mol|
 linear molecules ---------------------------------------
|  Dinfh | S(rot)=       0.00753422 Eh      4.73 kcal/mol|
|  Cinfv | S(rot)=       0.00818867 Eh      5.14 kcal/mol|
 --------------------------------------------------------


-------------------
GIBBS FREE ENERGY
-------------------

The Gibbs free energy is G = H - T*S

Total enthalpy                    ...   -270.52791407 Eh 
Total entropy correction          ...     -0.04030773 Eh    -25.29 kcal/mol
-----------------------------------------------------------------------
Final Gibbs free energy         ...   -270.56822180 Eh

For completeness - the Gibbs free energy minus the electronic energy
G-E(el)                           ...      0.09662330 Eh     60.63 kcal/mol



--------------------------------
SUGGESTED CITATIONS FOR THIS RUN
--------------------------------

Below you find a list of papers that are relevant to this ORCA run
We neither can nor want to force you to cite these papers, but we appreciate if you do
You receive ORCA, which is the product of decades of hard work by many enthusiastic individuals, for free
The only thing we kindly ask in return is that you cite our papers,
We deeply appreciate it, if you show your appreciation for ORCA by not just citing the generic ORCA reference.

Please note that relegating all ORCA citations to the supporting information does *not* help us.
SI sections are not indexed - citations you put there will not count into any citation statistics
But we need these citations in order to attract the funding resources that allow us to do what we are doing

Therefore, if you are a happy ORCA user, please consider citing a few of the papers listed below in the main body of your paper

In addition to the list printed below, the program has created the file path_back.bibtex that contains the list in bibtex format
You can import this file easily into all common literature databanks and citation aid programs


List of essential papers. We consider these as the minimum necessary citations

  1. Neese, F.
     Software update: the ORCA program system, version 6.0
     WIRES Comput. Molec. Sci. 2025 15(1), e70019
     doi.org/10.1002/wcms.7019

List of papers to cite with high priority. The work reported in these papers was absolutely
necessary for this run to complete.
Our perspective: the developers of density functionals and basis sets usually get cited in chemistry papers
Good! But without the algorithms to do something with them, the functionals or basis sets would not do anything.
Hence, in our opinion, the algorithm design and method developments papers are equally worthy of getting cited

  1. Neese, F.
     An improvement of the resolution of the identity approximation for the formation of the Coulomb matrix
     J. Comp. Chem. 2003 24(14), 1740-1747
     doi.org/10.1002/jcc.10318
  2. Neese, F.; Schwabe, T.; Grimme, S.
     Analytic derivatives for perturbatively corrected 'double hybrid' density functionals: Theory, implementation, and applications
     J. Chem. Phys. 2007 126(12), Art. No. 124115
     doi.org/10.1063/1.2712433
  3. Neese, F.; Wennmohs, F.; Hansen, A.; Becker, U.
     Efficient, approximate and parallel Hartree-Fock and hybrid DFT calculations. A 'chain-of-spheres' algorithm for the Hartree-Fock exchange
     Chem. Phys. 2009 356(1-3), 98-109
     doi.org/10.1016/j.chemphys.2008.10.036
  4. Kossmann, S.; Neese, F.
     Efficient Structure Optimization with Second-Order Many-Body Perturbation Theory: The RIJCOSX-MP2 Method
     J. Theo. Comp. Chem. 2010 6 , 2325-2338
     doi.org/10.1021/ct100199k
  5. Caldeweyher, E.; Bannwarth, C.; Grimme, S.
     Extension of the D3 dispersion coefficient model
     J. Chem. Phys. 2017 147 , 034112
     doi.org/10.1063/1.4993215
  6. Caldeweyher, E.; Ehlert, S.; Hansen, A.; Neugebauer, H.; Spicher, S.; Bannwarth, C.; Grimme, S.
     A generally applicable atomic-charge dependent London dispersion correction
     J. Chem. Phys. 2019 150 , 154122
     doi.org/10.1063/1.5090222
  7. Caldeweyher, E.; Mewes, J.; Ehlert, S.; Grimme, S.
     Extension and evaluation of the D4 London-dispersion model for periodic systems
     Phys. Chem. Chem. Phys. 2020 22(16), 8499-8512
     doi.org/10.1039/D0CP00502A
  8. Helmich-Paris, B.; de Souza, B.; Neese, F.; Izsák, R.
     An improved chain of spheres for exchange algorithm
     J. Chem. Phys. 2021 155(10), 104109
     doi.org/10.1063/5.0058766
  9. Neese, F.
     The SHARK Integral Generation and Digestion System
     J. Comp. Chem. 2022 44(3), 381
     doi.org/10.1002/jcc.26942
 10. Wittmann, L.; Gordiy, I.; Friede, M.; Helmich-Paris, B.; Grimme, S.; Hansen, A.; Bursch, M.
     Extension of the D3 and D4 London Dispersion Corrections to the full Actinides Series
     Phys. Chem. Chem. Phys. 2024 26(32), 21379-21394
     doi.org/10.1039/D4CP01514B

List of suggested additional citations. These are papers that are important in the 'surrounding' of 
of this run, or papers that preceded the highly important papers. If you like your results we are grateful for a citation.

  1. Izsak, R.; Neese, F.
     An overlap fitted chain of spheres exchange method
     J. Chem. Phys. 2011 135 , 144105
     doi.org/10.1063/1.3646921
  2. Izsak, R.; Hansen, A.; Neese, F.
     The resolution of identity and chain of spheres approximations for the LPNO-CCSD singles Fock term
     Molec. Phys. 2012 110 , 2413-2417
     doi.org/10.1080/00268976.2012.687466
  3. Neese, F.
     The ORCA program system
     WIRES Comput. Molec. Sci. 2012 2(1), 73-78
     doi.org/10.1002/wcms.81
  4. Izsak, R.; Neese, F.; Klopper, W.
     Robust fitting techniques in the chain of spheres approximation to the Fock exchange: The role of the complementary space
     J. Chem. Phys. 2013 139 , 
     doi.org/10.1063/1.4819264
  5. Neese, F.
     Software update: the ORCA program system, version 4.0
     WIRES Comput. Molec. Sci. 2018 8(1), 1-6
     doi.org/10.1002/wcms.1327
  6. Neese, F.; Wennmohs, F.; Becker, U.; Riplinger, C.
     The ORCA quantum chemistry program package
     J. Chem. Phys. 2020 152(22), 224108
     doi.org/10.1063/5.0004608
  7. Neese, F.
     Software update: The ORCA program system—Version 5.0
     WIRES Comput. Molec. Sci. 2022 12(1), e1606
     doi.org/10.1002/wcms.1606

List of optional additional citations

  1. Neese, F.
     Approximate second-order SCF convergence for spin unrestricted wavefunctions
     Chem. Phys. Lett. 2000 325(1-3), 93-98
     doi.org/10.1016/s0009-2614(00)00662-x

Timings for individual modules:

Sum of individual times          ...     5229.914 sec (=  87.165 min)
Startup calculation              ...       78.770 sec (=   1.313 min)   1.5 %
SCF iterations                   ...      871.459 sec (=  14.524 min)  16.7 %
Property calculations            ...        1.766 sec (=   0.029 min)   0.0 %
MP2 module                       ...     1124.767 sec (=  18.746 min)  21.5 %
Geometry relaxation              ...        0.223 sec (=   0.004 min)   0.0 %
Numerical frequency calculation  ...     3152.928 sec (=  52.549 min)  60.3 %
                             ****ORCA TERMINATED NORMALLY****
TOTAL RUN TIME: 0 days 1 hours 27 minutes 14 seconds 907 msec
