
                                 *****************
                                 * O   R   C   A *
                                 *****************

                                            #,                                       
                                            ###                                      
                                            ####                                     
                                            #####                                    
                                            ######                                   
                                           ########,                                 
                                     ,,################,,,,,                         
                               ,,#################################,,                 
                          ,,##########################################,,             
                       ,#########################################, ''#####,          
                    ,#############################################,,   '####,        
                  ,##################################################,,,,####,       
                ,###########''''           ''''###############################       
              ,#####''   ,,,,##########,,,,          '''####'''          '####       
            ,##' ,,,,###########################,,,                        '##       
           ' ,,###''''                  '''############,,,                           
         ,,##''                                '''############,,,,        ,,,,,,###''
      ,#''                                            '''#######################'''  
     '                                                          ''''####''''         
             ,#######,   #######,   ,#######,      ##                                
            ,#'     '#,  ##    ##  ,#'     '#,    #''#        ,####,    ,#,          
            ##       ##  ##   ,#'  ##            #'  '#       #'       ,# #          
            ##       ##  #######   ##           ,######,      #####,      #          
            '#,     ,#'  ##    ##  '#,     ,#' ,#      #,     #,   #      #          
             '#######'   ##     ##  '#######'  #'      '#     '####' #    #          



                #########################################################
                #                        -***-                          #
                #          Department of theory and spectroscopy        #
                #                                                       #
                #                      Frank Neese                      #
                #                                                       #
                #     Directorship, Architecture, Infrastructure        #
                #                    SHARK, DRIVERS                     #
                #        Core code/Algorithms in most modules           #
                #                                                       #
                #        Max Planck Institute fuer Kohlenforschung      #
                #                Kaiser Wilhelm Platz 1                 #
                #                 D-45470 Muelheim/Ruhr                 #
                #                      Germany                          #
                #                                                       #
                #                  All rights reserved                  #
                #                        -***-                          #
                #########################################################


                         Program Version 6.1.0  -  RELEASE   -
                                (GIT: $679e74b$)
                          ($2025-06-10 18:02:51 +0200$)


 With contributions from (in alphabetic order):
[Max-Planck-Institut fuer Kohlenforschung]                               
  Daniel Aravena         : Magnetic Suceptibility                        
  Michael Atanasov       : Ab Initio Ligand Field Theory (pilot matlab implementation)
  Alexander A. Auer      : GIAO ZORA, VPT2 properties, NMR spectrum      
  Ute Becker             : All parallelization in ORCA, NUMFREQ, NUMCALC 
  Giovanni Bistoni       : ED, misc. LED, open-shell LED, HFLD           
  Dmytro Bykov           : pre 5.0 version of the SCF Hessian            
  Marcos Casanova-Páez   : Triplet and SCS-CIS(D). UHF-(DLPNO)-IP/EA/STEOM-CCSD. UHF-CVS-IP/STEOM-CCSD   
  Vijay G. Chilkuri      : MRCI spin determinant printing, contributions to CSF-ICE 
  Pauline Colinet        : FMM embedding                                 
  Dipayan Datta          : RHF DLPNO-CCSD density                        
  Achintya Kumar Dutta   : EOM-CC, STEOM-CC                              
  Nicolas Foglia         : Exact transition moments, OPA infrastructure, MCD improvements    
  Dmitry Ganyushin       : Spin-Orbit,Spin-Spin,Magnetic field MRCI      
  Miquel Garcia-Rates    : C-PCM and meta-GGA Hessian, CCSD/C-PCM, Gaussian charge scheme 
  Tiago L. C. Gouveia    : GS-ROHF, GS-ROCIS                             
  Yang Guo               : DLPNO-NEVPT2, F12-NEVPT2, CIM, IAO-localization        
  Andreas Hansen         : Spin unrestricted coupled pair/coupled cluster methods 
  Ingolf Harden          : AUTO-CI MPn and infrastructure                
  Benjamin Helmich-Paris : MC-RPA, TRAH-(SCF,CASSCF), AVAS, COSX integrals, SCF dyn. polar., MC-PDFT, srDFT 
  Lee Huntington         : MR-EOM, pCC                                   
  Robert Izsak           : Overlap fitted RIJCOSX, COSX-SCS-MP3, EOM     
  Riya Kayal             : Wick's Theorem for AUTO-CI, AUTO-CI UHF-CCSDT 
  Emily Kempfer          : AUTO-CI RHF CISDT and CCSDT, approximate NEVPT4
  Christian Kollmar      : KDIIS, OOCD, Brueckner-CCSD(T), CCSD density, CASPT2, CASPT2-K, improved NEVPT2 
  Axel Koslowski         : Symmetry handling                             
  Simone Kossmann        : meta-GGA functionals, TD-DFT gradient, OOMP2, (MP2 Hessian; deprecated post 5.0) 
  Lucas Lang             : DCDCAS, Hyperfine gauge corrections, ICE-SOC+SSC
  Marvin Lechner         : AUTO-CI (C++ implementation), FIC-MRCC        
  Spencer Leger          : CASSCF response                               
  Dagmar Lenk            : GEPOL surface, SMD, ORCA-2-JSON               
  Dimitrios Liakos       : Extrapolation schemes; Compound Job, Property file
  Dimitrios Manganas     : Further ROCIS development; embedding schemes. LFT, Crystal Embedding 
  Dimitrios Pantazis     : SARC Basis sets                               
  Anastasios Papadopoulos: AUTO-CI, single reference methods and gradients 
  Taras Petrenko         : pre 6.0 DFT Hessian and TD-DFT gradient,  ECA, NRVS 
  Petra Pikulova         : Analytic Raman intensities                    
  Peter Pinski           : DLPNO-MP2, DLPNO-MP2 Gradient                 
  Shashank Vittal Rao    : ES-AILFT, MagRelax                            
  Christoph Reimann      : Effective Core Potentials                     
  Marius Retegan         : Local ZFS, SOC                                
  Christoph Riplinger    : Optimizer, TS searches, QM/MM, DLPNO-CCSD(T), (RO)-DLPNO pert. Triples 
  Michael Roemelt        : Original ROCIS implementation, recursive CI coupling coefficients
  Masaaki Saitow         : Open-shell DLPNO-CCSD energy and density      
  Barbara Sandhoefer     : DKH picture change effects                    
  Yorick L. A. Schmerwitz: GMF and freeze-and-release deltaSCF, NEB S-IDPP initial path                    
  Kantharuban Sivalingam : CASSCF convergence/infrastructure, NEVPT2, NEVPT3, NEVPT4(SD), FIC-MRCI and CEPA variants
  Bernardo de Souza      : ESD, SOC TD-DFT                               
  Georgi L. Stoychev     : AutoAux, RI-MP2 NMR, DLPNO-MP2 response, X2C  
  Van Anh Tran           : RI-MP2 g-tensors                              
  Willem Van den Heuvel  : Paramagnetic NMR                              
  Zikuan Wang            : NOTCH, Electric field optimization            
  Frank Wennmohs         : Technical directorship and infrastructure     
  Hang Xu                : AUTO-CI-Response properties                   
                                                                         
[FACCTs GmbH]                                                            
  Markus Bursch, Nicolas Foglia, Miquel Garcia-Rates, Ingolf Harden, Hagen Neugebauer, Anastasios Papadopoulos, 
  Christoph Riplinger, Bernardo de Souza, Georgi L. Stoychev                                                    
                                                                 
  APM, various basis sets, CI-OPT, improved COSX, DLPNO-Multilevel,           
  DOCKER, DRACO, updates on ESD, Fragmentator, GOAT, IRC, LR-CPCM, L-BFGS, MBIS, meta-GGA TD-DFT gradient, ML-optimized integration grids, 
  MM, NACMEs, nearIR, NEB, NEB-TS, NL-DFT gradient (VV10), 2- and 3-layer-ONIOM, interface openCOSMO-RS, QMMM,   
  Crystal-QMMM, RESP, rigid body optimization, SF, symmetry and pop. for TD-DFT, various functionals, SOLVATOR                                   
                                                                         
[Other institutions]                                                     
  V. Asgeirsson          : NEB                                           
  Christoph Bannwarth    : sTDA-DFT, sTD-DFT, PBEh-3c, B97-3c, D3        
  Giovanni Bistoni       : ETS/NOCV, ADLD/ADEX, COVALED                  
  Martin Brehm           : Molecular dynamics                            
  Ronald Cardenas        : ETS/NOCV                                      
  Martina Colucci        : COVALED                                       
  Sebastian Ehlert       : rSCAN, r2SCAN, r2SCAN-3c, D4, dhf basis sets  
  Marvin Friede          : D4 for Fr, Ra, Ac-Lr                          
  Lars Goerigk           : TD-DFT with DH, B97 family of functionals     
  Stefan Grimme          : VdW corrections, initial TS optimization, DFT functionals, gCP, sTDA/sTD-DF 
  Waldemar Hujo          : DFT-NL                                        
  H. Jonsson             : NEB                                           
  Holger Kruse           : gCP                                           
  Marcel Mueller         : wB97X-3c, vDZP basis set                      
  Hagen Neugebauer       : wr2SCAN, Native XTB                           
  Gianluca Regni         : ADLD/ADEX                                     
  Tobias Risthaus        : pre 6.0 range-separated hybrid DFT and stability analysis
  Lukas Wittmann         : regularized MP2, r2SCAN double-hybrids, wr2SCAN        
                                                                         
We gratefully acknowledge several colleagues who have allowed us to      
interface, adapt or use parts of their codes:                            
  Ed Valeev, F. Pavosevic, A. Kumar             : LibInt (2-el integral package), F12 methods 
  Garnet Chan, S. Sharma, J. Yang, R. Olivares  : DMRG                   
  Ulf Ekstrom                                   : XCFun DFT Library      
  Mihaly Kallay                                 : mrcc  (arbitrary order and MRCC methods)
  Frank Weinhold                                : gennbo (NPA and NBO analysis)           
  Simon Mueller                                 : openCOSMO-RS                            
  Christopher J. Cramer and Donald G. Truhlar   : smd solvation model                     
  S Lehtola, MJT Oliveira, MAL Marques          : LibXC Library                           
  Liviu Ungur et al                             : ANISO software                          


 Your calculation uses the libint2 library for the computation of 2-el integrals
 For citations please refer to: http://libint.valeyev.net

 Your ORCA version has been built with support for libXC version: 7.0.0
 For citations please refer to: https://libxc.gitlab.io

 This ORCA versions uses:
   CBLAS   interface :  Fast vector & matrix operations
   LAPACKE interface :  Fast linear algebra routines
   SCALAPACK package :  Parallel linear algebra routines
   Shared memory     :  Shared parallel matrices
   BLAS/LAPACK       :  OpenBLAS 0.3.29  USE64BITINT DYNAMIC_ARCH NO_AFFINITY SkylakeX SINGLE_THREADED
        Core in use  :  SkylakeX
   Copyright (c) 2011-2014, The OpenBLAS Project


  ***********************************
  * Starting time: Thu Sep  4 15:54:58 2025
  * Host name:     csed-0038
  * Process ID:    3127851
  * Working dir.:  /gpfs/fs1/home/copan/proj/cyclopentene-oh-addition-project/calc/cyC5e1/RH+OH_RHOH_saddle/run-path-forw
  ***********************************

NOTE: MaxCore=10000 MB was set to SCF,MP2,MDCI,CIPSI,MRCI,RASCI and CIS
      => If you want to overwrite this, your respective input block should be placed after the MaxCore statement


***************************************
The coordinates will be read from file: path_init_forw.xyz
***************************************


Your calculation utilizes the atom-pairwise dispersion correction
based on EEQ partial charges (D4)


Warning: RI is on but no J-basis has been assigned. Assigning Def2/J (nothing to worry about!)
================================================================================

----- Orbital basis set information -----
Your calculation utilizes the basis: def2-TZVPP
   F. Weigend and R. Ahlrichs, Phys. Chem. Chem. Phys. 7, 3297 (2005).

----- AuxJ basis set information -----
Your calculation utilizes the auxiliary basis: def2/J
   H-Rn: F. Weigend, Phys. Chem. Chem. Phys. 8, 1057 (2006).
   Fr-Lr: K. Eichkorn, F. Weigend, O. Treutler, R. Ahlrichs; Theor. Chem. Acc. 97, 119 (1997).

----- AuxC basis set information -----
Your calculation utilizes the auxiliary basis: def2-TZVPP/C
  H-La, Hf-Rn : A. Hellweg, C. Hattig, S. Hofener and W. Klopper, Theor. Chem. Acc. 117, 587 (2007).
        Ce-Lu : J. Chmela and M. E. Harding, Mol. Phys. (2018).

================================================================================
                                        WARNINGS
                       Please study these warnings very carefully!
================================================================================


WARNING: your system is open-shell and RHF/RKS was chosen
  ===> : WILL SWITCH to UHF/UKS


WARNING: The frozen-core approximation for MP2-gradient calculations is turned on by default.

WARNING: The environment variable RSH_COMMAND is not set!
  ===> : All Displacements for the Numerical Hessian or Gradient calculation
         will be started on localhost

WARNING: Geometry Optimization
  ===> : Switching off AutoStart
         For restart on a previous wavefunction, please use MOREAD

WARNING: The frozen-core approximation is turned on by default for 
         the MP2 part of double-hybrid DFT.

================================================================================
                                       INPUT FILE
================================================================================
NAME = path_forw.inp
|  1> % MaxCore 10000
|  2> ! PAL8
|  3> ! REVDSD-PBEP86-D4/2021 def2-TZVPP def2-TZVPP/c
|  4> ! Opt
|  5> ! NumFreq
|  6> %scf
|  7>    Convergence    VeryTight
|  8> end
|  9> %geom
| 10>    MaxIter        500
| 11>    Convergence    Tight
| 12> end
| 13> * xyzfile 0 2 path_init_forw.xyz
| 14> 
| 15>                          ****END OF INPUT****
================================================================================

                       *****************************
                       * Geometry Optimization Run *
                       *****************************

Geometry optimization settings:
Update method            Update   .... BFGS
Choice of coordinates    CoordSys .... (2022) Redundant Internals
Initial Hessian          InHess   .... Almloef's Model
Max. no of cycles        MaxIter  .... 500

Convergence Tolerances:
Energy Change            TolE     ....  1.0000e-06 Eh
Max. Gradient            TolMAXG  ....  1.0000e-04 Eh/bohr
RMS Gradient             TolRMSG  ....  3.0000e-05 Eh/bohr
Max. Displacement        TolMAXD  ....  1.0000e-03 bohr
RMS Displacement         TolRMSD  ....  6.0000e-04 bohr
Strict Convergence                .... False

------------------------------------------------------------------------------
                        ORCA OPTIMIZATION COORDINATE SETUP
------------------------------------------------------------------------------

The optimization will be done in redundant internal coordinates (2022)
Making redundant internal coordinates   ...  (2022 redundants) done
Evaluating the initial hessian          ...  (Almloef) done
Evaluating the coordinates              ...  done
Calculating the B-matrix                .... done
Calculating the G-matrix                .... done
The number of degrees of freedom        ....   97

    -----------------------------------------------------------------
                    Redundant Internal Coordinates


    -----------------------------------------------------------------
         Definition                    Initial Value    Approx d2E/dq
    -----------------------------------------------------------------
      1. B(C   1,C   0)                  1.5432         0.355944   
      2. B(C   2,C   1)                  1.5443         0.354446   
      3. B(C   3,C   2)                  1.5001         0.416909   
      4. B(C   4,C   3)                  1.3598         0.698180   
      5. B(C   4,C   0)                  1.5094         0.402987   
      6. B(H   5,C   0)                  1.0998         0.347393   
      7. B(H   6,C   0)                  1.0910         0.358775   
      8. B(H   7,C   1)                  1.0905         0.359462   
      9. B(H   8,C   1)                  1.0898         0.360339   
     10. B(H   9,C   2)                  1.0922         0.357250   
     11. B(H  10,C   2)                  1.0974         0.350469   
     12. B(H  11,C   3)                  1.0824         0.370232   
     13. B(H  12,C   4)                  1.0822         0.370605   
     14. B(O  13,C   4)                  2.0412         0.051157   
     15. B(O  13,H  12)                  2.4538         0.010000   
     16. B(O  13,C   3)                  2.4408         0.011786   
     17. B(H  14,O  13)                  0.9917         0.462800   
     18. B(H  14,H  12)                  2.5916         0.010000   
     19. B(H  14,C   3)                  2.5320         0.010000   
     20. B(H  14,C   4)                  2.4108         0.010000   
     21. A(C   1,C   0,C   4)          102.9800         0.365061   
     22. A(C   4,C   0,H   6)          112.1480         0.328191   
     23. A(H   5,C   0,H   6)          108.1991         0.289038   
     24. A(C   1,C   0,H   5)          111.8885         0.319873   
     25. A(C   4,C   0,H   5)          108.9202         0.326452   
     26. A(C   1,C   0,H   6)          112.6412         0.321564   
     27. A(C   2,C   1,H   8)          108.9961         0.321571   
     28. A(C   2,C   1,H   7)          112.5026         0.321442   
     29. A(C   0,C   1,C   2)          105.2767         0.357157   
     30. A(C   0,C   1,H   7)          112.6765         0.321665   
     31. A(H   7,C   1,H   8)          108.5053         0.290789   
     32. A(C   0,C   1,H   8)          108.7635         0.321793   
     33. A(H   9,C   2,H  10)          106.6935         0.289244   
     34. A(C   1,C   2,H  10)          111.9461         0.320113   
     35. A(C   3,C   2,H   9)          112.5748         0.329804   
     36. A(C   1,C   2,H   9)          112.7813         0.321118   
     37. A(C   1,C   2,C   3)          103.4455         0.366926   
     38. A(C   3,C   2,H  10)          109.4643         0.328762   
     39. A(C   4,C   3,O  13)           56.7450         0.232369   
     40. A(C   2,C   3,O  13)          101.6392         0.216577   
     41. A(C   4,C   3,H  11)          124.4908         0.361807   
     42. A(C   2,C   3,H  11)          123.5790         0.331757   
     43. A(H  11,C   3,O  13)          108.2884         0.196414   
     44. A(C   2,C   3,C   4)          111.9302         0.413016   
     45. A(H  12,C   4,O  13)           98.8978         0.238782   
     46. A(C   3,C   4,O  13)           89.4018         0.288873   
     47. A(C   0,C   4,O  13)           96.5383         0.265495   
     48. A(C   3,C   4,H  12)          124.4413         0.361869   
     49. A(C   0,C   4,H  12)          122.7154         0.329953   
     50. A(C   0,C   4,C   3)          110.4717         0.410535   
     51. A(C   4,O  13,H  14)           99.4090         0.244670   
     52. A(C   3,O  13,C   4)           33.8532         0.167697   
     53. A(C   3,O  13,H  14)           83.7132         0.200662   
     54. D(C   2,C   1,C   0,C   4)    -24.1254         0.010181   
     55. D(H   7,C   1,C   0,C   4)   -147.0890         0.010181   
     56. D(H   7,C   1,C   0,H   6)     91.8912         0.010181   
     57. D(H   7,C   1,C   0,H   5)    -30.2675         0.010181   
     58. D(C   2,C   1,C   0,H   6)   -145.1452         0.010181   
     59. D(C   2,C   1,C   0,H   5)     92.6961         0.010181   
     60. D(H   9,C   2,C   1,H   7)    -94.5893         0.010102   
     61. D(H   9,C   2,C   1,H   8)     25.8051         0.010102   
     62. D(C   3,C   2,C   1,C   0)     20.4310         0.010102   
     63. D(C   3,C   2,C   1,H   8)    -96.0996         0.010102   
     64. D(C   3,C   2,C   1,H   7)    143.5059         0.010102   
     65. D(H   9,C   2,C   1,C   0)    142.3358         0.010102   
     66. D(C   4,C   3,C   2,C   1)     -8.8438         0.014608   
     67. D(C   4,C   3,C   2,H  10)    110.6316         0.014608   
     68. D(H  11,C   3,C   2,H  10)    -69.3222         0.014608   
     69. D(H  11,C   3,C   2,H   9)     49.1594         0.014608   
     70. D(H  11,C   3,C   2,C   1)    171.2024         0.014608   
     71. D(O  13,C   3,C   2,C   1)     49.7823         0.014608   
     72. D(C   4,C   3,C   2,H   9)   -130.8868         0.014608   
     73. D(H  12,C   4,C   3,C   2)   -169.8326         0.045408   
     74. D(C   0,C   4,C   3,O  13)    -96.7566         0.045408   
     75. D(C   0,C   4,C   3,H  11)    172.9712         0.045408   
     76. D(O  13,C   4,C   0,C   1)    -72.1361         0.013668   
     77. D(H  12,C   4,C   0,H   6)    -55.7712         0.013668   
     78. D(H  12,C   4,C   0,H   5)     63.9632         0.013668   
     79. D(C   0,C   4,C   3,C   2)     -6.9821         0.045408   
     80. D(H  12,C   4,C   0,C   1)   -177.1267         0.013668   
     81. D(C   3,C   4,C   0,H   6)    141.0286         0.013668   
     82. D(C   3,C   4,C   0,C   1)     19.6730         0.013668   
     83. D(H  12,C   4,C   3,H  11)     10.1207         0.045408   
     84. D(C   3,C   4,C   0,H   5)    -99.2370         0.013668   
     85. D(O  13,C   4,C   3,H  11)    -90.2722         0.045408   
     86. D(O  13,C   4,C   3,C   2)     89.7745         0.045408   
     87. D(H  12,C   4,C   3,O  13)    100.3929         0.045408   
     88. D(C   3,O  13,C   4,H  12)   -124.8093         0.010000   
     89. D(H  14,O  13,C   4,H  12)    -61.3157         0.010000   
     90. D(H  14,O  13,C   4,C   3)     63.4937         0.010000   
     91. D(H  14,O  13,C   4,C   0)    174.0334         0.010000   
     92. D(C   4,O  13,C   3,H  11)    119.7667         0.010000   
     93. D(C   4,O  13,C   3,C   2)   -108.7184         0.010000   
     94. D(H  14,O  13,C   3,H  11)      2.4130         0.010000   
     95. D(C   3,O  13,C   4,C   0)    110.5398         0.010000   
     96. D(H  14,O  13,C   3,C   4)   -117.3537         0.010000   
     97. D(H  14,O  13,C   3,C   2)    133.9279         0.010000   
    -----------------------------------------------------------------

Number of atoms                         .... 15
Number of degrees of freedom            .... 97


         *************************************************************
         *                GEOMETRY OPTIMIZATION CYCLE   1            *
         *************************************************************
---------------------------------
CARTESIAN COORDINATES (ANGSTROEM)
---------------------------------
  C      1.910594    1.401493   -0.015143
  C      0.699712    2.299510    0.314511
  C     -0.543062    1.437271    0.003152
  C     -0.011127    0.034948    0.033325
  C      1.345714    0.008200    0.118433
  H      2.260012    1.547150   -1.047715
  H      2.753527    1.569735    0.656755
  H      0.707502    3.236942   -0.242547
  H      0.713813    2.529934    1.379599
  H     -1.355332    1.593015    0.716441
  H     -0.952181    1.651836   -0.992250
  H     -0.640109   -0.844989   -0.008903
  H      1.949180   -0.881765   -0.003583
  O      1.196738    0.011979    2.154200
  H      0.732239   -0.854486    2.284375

----------------------------
CARTESIAN COORDINATES (A.U.)
----------------------------
  NO LB      ZA    FRAG     MASS         X           Y           Z
   0 C     6.0000    0    12.011    3.610499    2.648438   -0.028616
   1 C     6.0000    0    12.011    1.322264    4.345444    0.594340
   2 C     6.0000    0    12.011   -1.026238    2.716049    0.005956
   3 C     6.0000    0    12.011   -0.021027    0.066042    0.062975
   4 C     6.0000    0    12.011    2.543031    0.015496    0.223806
   5 H     1.0000    0     1.008    4.270804    2.923690   -1.979894
   6 H     1.0000    0     1.008    5.203412    2.966369    1.241087
   7 H     1.0000    0     1.008    1.336985    6.116934   -0.458347
   8 H     1.0000    0     1.008    1.348911    4.780882    2.607064
   9 H     1.0000    0     1.008   -2.561206    3.010362    1.353877
  10 H     1.0000    0     1.008   -1.799361    3.121518   -1.875081
  11 H     1.0000    0     1.008   -1.209631   -1.596798   -0.016824
  12 H     1.0000    0     1.008    3.683416   -1.666294   -0.006771
  13 O     8.0000    0    15.999    2.261507    0.022637    4.070848
  14 H     1.0000    0     1.008    1.383731   -1.614745    4.316843

--------------------------------
INTERNAL COORDINATES (ANGSTROEM)
--------------------------------
 C      0   0   0     0.000000000000     0.00000000     0.00000000
 C      1   0   0     1.543159586669     0.00000000     0.00000000
 C      2   1   0     1.544308173610   105.27674790     0.00000000
 C      3   2   1     1.500125011618   103.44546151    20.43102488
 C      4   3   2     1.359770688921   111.93022591   351.15619019
 H      1   2   3     1.099778993961   111.88845013    92.69609013
 H      1   2   3     1.091003361799   112.64120788   214.85481503
 H      2   1   3     1.090482945345   112.67646197   237.03636056
 H      2   1   3     1.089819483089   108.76348431   116.68947218
 H      3   2   1     1.092162965842   112.78130821   142.33576823
 H      3   2   1     1.097379440754   111.94606901   262.67507903
 H      4   3   2     1.082446619597   123.57899511   171.20236082
 H      5   4   3     1.082172268466   124.44131284   190.16740766
 O      5   4   3     2.041214199369    89.40180718    89.77447330
 H     14   5   4     0.991698768705    99.40903792    63.49366130

---------------------------
INTERNAL COORDINATES (A.U.)
---------------------------
 C      0   0   0     0.000000000000     0.00000000     0.00000000
 C      1   0   0     2.916148999740     0.00000000     0.00000000
 C      2   1   0     2.918319514499   105.27674790     0.00000000
 C      3   2   1     2.834825438604   103.44546151    20.43102488
 C      4   3   2     2.569594206994   111.93022591   351.15619019
 H      1   2   3     2.078281106425   111.88845013    92.69609013
 H      1   2   3     2.061697564988   112.64120788   214.85481503
 H      2   1   3     2.060714120414   112.67646197   237.03636056
 H      2   1   3     2.059460358450   108.76348431   116.68947218
 H      3   2   1     2.063888899053   112.78130821   142.33576823
 H      3   2   1     2.073746608021   111.94606901   262.67507903
 H      4   3   2     2.045527665627   123.57899511   171.20236082
 H      5   4   3     2.045009217125   124.44131284   190.16740766
 O      5   4   3     3.857335817479    89.40180718    89.77447330
 H     14   5   4     1.874039080199    99.40903792    63.49366130

---------------------
BASIS SET INFORMATION
---------------------
There are 3 groups of distinct atoms

 Group   1 Type C   : 11s6p2d1f contracted to 5s3p2d1f pattern {62111/411/11/1}
 Group   2 Type H   : 5s2p1d contracted to 3s2p1d pattern {311/11/1}
 Group   3 Type O   : 11s6p2d1f contracted to 5s3p2d1f pattern {62111/411/11/1}

Atom   0C    basis set group =>   1
Atom   1C    basis set group =>   1
Atom   2C    basis set group =>   1
Atom   3C    basis set group =>   1
Atom   4C    basis set group =>   1
Atom   5H    basis set group =>   2
Atom   6H    basis set group =>   2
Atom   7H    basis set group =>   2
Atom   8H    basis set group =>   2
Atom   9H    basis set group =>   2
Atom  10H    basis set group =>   2
Atom  11H    basis set group =>   2
Atom  12H    basis set group =>   2
Atom  13O    basis set group =>   3
Atom  14H    basis set group =>   2
---------------------------------
AUXILIARY/J BASIS SET INFORMATION
---------------------------------
There are 3 groups of distinct atoms

 Group   1 Type C   : 12s5p4d2f1g contracted to 6s4p3d1f1g pattern {711111/2111/211/2/1}
 Group   2 Type H   : 5s2p1d contracted to 3s1p1d pattern {311/2/1}
 Group   3 Type O   : 12s5p4d2f1g contracted to 6s4p3d1f1g pattern {711111/2111/211/2/1}

Atom   0C    basis set group =>   1
Atom   1C    basis set group =>   1
Atom   2C    basis set group =>   1
Atom   3C    basis set group =>   1
Atom   4C    basis set group =>   1
Atom   5H    basis set group =>   2
Atom   6H    basis set group =>   2
Atom   7H    basis set group =>   2
Atom   8H    basis set group =>   2
Atom   9H    basis set group =>   2
Atom  10H    basis set group =>   2
Atom  11H    basis set group =>   2
Atom  12H    basis set group =>   2
Atom  13O    basis set group =>   3
Atom  14H    basis set group =>   2
---------------------------------
AUXILIARY/C BASIS SET INFORMATION
---------------------------------
There are 3 groups of distinct atoms

 Group   1 Type C   : 8s6p5d3f1g contracted to 8s6p4d3f1g pattern {11111111/111111/2111/111/1}
 Group   2 Type H   : 4s3p2d1f contracted to 4s3p2d1f pattern {1111/111/11/1}
 Group   3 Type O   : 8s6p5d3f1g contracted to 8s6p4d3f1g pattern {11111111/111111/2111/111/1}

Atom   0C    basis set group =>   1
Atom   1C    basis set group =>   1
Atom   2C    basis set group =>   1
Atom   3C    basis set group =>   1
Atom   4C    basis set group =>   1
Atom   5H    basis set group =>   2
Atom   6H    basis set group =>   2
Atom   7H    basis set group =>   2
Atom   8H    basis set group =>   2
Atom   9H    basis set group =>   2
Atom  10H    basis set group =>   2
Atom  11H    basis set group =>   2
Atom  12H    basis set group =>   2
Atom  13O    basis set group =>   3
Atom  14H    basis set group =>   2


           ************************************************************
           *        Program running with 8 parallel MPI-processes     *
           *              working on a common directory               *
           ************************************************************
------------------------------------------------------------------------------
                             ORCA STARTUP CALCULATIONS
                           -- RI-GTO INTEGRALS CHOSEN --
------------------------------------------------------------------------------
------------------------------------------------------------------------------
                   ___                                                        
                  /   \      - P O W E R E D   B Y -                         
                 /     \                                                     
                 |  |  |   _    _      __       _____    __    __             
                 |  |  |  | |  | |    /  \     |  _  \  |  |  /  |          
                  \  \/   | |  | |   /    \    | | | |  |  | /  /          
                 / \  \   | |__| |  /  /\  \   | |_| |  |  |/  /          
                |  |  |   |  __  | /  /__\  \  |    /   |      \           
                |  |  |   | |  | | |   __   |  |    \   |  |\   \          
                \     /   | |  | | |  |  |  |  | |\  \  |  | \   \       
                 \___/    |_|  |_| |__|  |__|  |_| \__\ |__|  \__/        
                                                                              
                      - O R C A' S   B I G   F R I E N D -                    
                                      &                                       
                       - I N T E G R A L  F E E D E R -                       
                                                                              
 v1 FN, 2020, v2 2021, v3 2022-2024                                           
------------------------------------------------------------------------------


----------------------
SHARK INTEGRAL PACKAGE
----------------------

Number of atoms                             ...     15
Number of basis functions                   ...    312
Number of shells                            ...    120
Maximum angular momentum                    ...      3
Integral batch strategy                     ... SHARK/LIBINT Hybrid
RI-J (if used) integral strategy            ... SPLIT-RIJ (Revised 2003 algorithm where possible)
Printlevel                                  ...      1
Contraction scheme used                     ... SEGMENTED contraction
Prescreening option                         ... SCHWARTZ
   Thresh                                   ... 1.000e-12
   Tcut                                     ... 1.000e-14
   Tpresel                                  ... 1.000e-14 
Coulomb Range Separation                    ... NOT USED
Exchange Range Separation                   ... NOT USED
Multipole approximations                    ... NOT USED
Finite Nucleus Model                        ... NOT USED
CABS basis                                  ... NOT available
Auxiliary Coulomb fitting basis             ... AVAILABLE
   # of basis functions in Aux-J            ...    393
   # of shells in Aux-J                     ...    135
   Maximum angular momentum in Aux-J        ...      4
Auxiliary J/K fitting basis                 ... NOT available
Auxiliary Correlation fitting basis         ... AVAILABLE
   # of basis functions in Aux-C            ...    726
   # of shells in Aux-C                     ...    222
   Maximum angular momentum in Aux-C        ...      4
Auxiliary 'external' fitting basis          ... NOT available

Checking pre-screening integrals            ... done (  0.0 sec) Dimension = 120
   => SHARK Basis and OBASIS are compatible. Storing Pre-screening
Shell pair information
Shell pair cut-off parameter TPreSel        ...   1.0e-14
Total number of shell pairs                 ...      7260
Shell pairs after pre-screening             ...      7007
Total number of primitive shell pairs       ...     18687
Primitive shell pairs kept                  ...     14841
          la=0 lb=0:   1561 shell pairs
          la=1 lb=0:   1973 shell pairs
          la=1 lb=1:    650 shell pairs
          la=2 lb=0:   1156 shell pairs
          la=2 lb=1:    740 shell pairs
          la=2 lb=2:    228 shell pairs
          la=3 lb=0:    338 shell pairs
          la=3 lb=1:    214 shell pairs
          la=3 lb=2:    126 shell pairs
          la=3 lb=3:     21 shell pairs

Checking whether 4 symmetric matrices of dimension 312 fit in memory
:Max Core in MB      =  10000.00
 MB in use           =     12.11
 MB left             =   9987.89
 MB needed           =      1.49
 Data fit in memory  = YES
Calculating RI/J V-Matrix + Cholesky decomp.... done (  0.0 sec)
Calculating RI/C V-Matrix + Cholesky decomp.... done (  0.0 sec)
Calculating Nuclear repulsion               ... done (  0.0 sec) ENN=    241.926780056693 Eh

Diagonalization of the overlap matrix:
Smallest eigenvalue                        ... 6.069e-05
Time for diagonalization                   ...    0.009 sec
Threshold for overlap eigenvalues          ... 1.000e-07
Number of eigenvalues below threshold      ... 0
Time for construction of square roots      ...    0.004 sec
Total time needed                          ...    0.015 sec

-------------------
DFT GRID GENERATION
-------------------

General Integration Accuracy     IntAcc      ... 4.388
Radial Grid Type                 RadialGrid  ... OptM3 with GC (2021)
Angular Grid (max. ang.)         AngularGrid ... 4 (Lebedev-302)
Angular grid pruning method      GridPruning ... 4 (adaptive)
Weight generation scheme         WeightScheme... mBecke (2022)
Basis function cutoff            BFCut       ... 1.0000e-12
Integration weight cutoff        WCut        ... 1.0000e-14
Partially contracted basis set               ... off
Rotationally invariant grid construction     ... off
Angular grids for H and He will be reduced by one unit

Total number of grid points                  ...    65048
Total number of batches                      ...     1024
Average number of points per batch           ...       63
Average number of grid points per atom       ...     4337

--------------------
COSX GRID GENERATION
--------------------

GRIDX 1
-------
General Integration Accuracy     IntAcc      ... 3.816
Radial Grid Type                 RadialGrid  ... OptM3 with GC (2021)
Angular Grid (max. ang.)         AngularGrid ... 1 (Lebedev-50)
Angular grid pruning method      GridPruning ... 4 (adaptive)
Weight generation scheme         WeightScheme... mBecke (2022)
Basis function cutoff            BFCut       ... 1.0000e-12
Integration weight cutoff        WCut        ... 1.0000e-14
Partially contracted basis set               ... on
Rotationally invariant grid construction     ... off
Angular grids for H and He will be reduced by one unit

Total number of grid points                  ...     8362
Total number of batches                      ...       76
Average number of points per batch           ...      110
Average number of grid points per atom       ...      557
UseSFitting                                  ... on

GRIDX 2
-------
General Integration Accuracy     IntAcc      ... 4.020
Radial Grid Type                 RadialGrid  ... OptM3 with GC (2021)
Angular Grid (max. ang.)         AngularGrid ... 2 (Lebedev-110)
Angular grid pruning method      GridPruning ... 4 (adaptive)
Weight generation scheme         WeightScheme... mBecke (2022)
Basis function cutoff            BFCut       ... 1.0000e-12
Integration weight cutoff        WCut        ... 1.0000e-14
Partially contracted basis set               ... on
Rotationally invariant grid construction     ... off
Angular grids for H and He will be reduced by one unit

Total number of grid points                  ...    17666
Total number of batches                      ...      147
Average number of points per batch           ...      120
Average number of grid points per atom       ...     1178
UseSFitting                                  ... on

GRIDX 3
-------
General Integration Accuracy     IntAcc      ... 4.338
Radial Grid Type                 RadialGrid  ... OptM3 with GC (2021)
Angular Grid (max. ang.)         AngularGrid ... 3 (Lebedev-194)
Angular grid pruning method      GridPruning ... 4 (adaptive)
Weight generation scheme         WeightScheme... mBecke (2022)
Basis function cutoff            BFCut       ... 1.0000e-12
Integration weight cutoff        WCut        ... 1.0000e-14
Partially contracted basis set               ... on
Rotationally invariant grid construction     ... off
Angular grids for H and He will be reduced by one unit

Total number of grid points                  ...    38630
Total number of batches                      ...      310
Average number of points per batch           ...      124
Average number of grid points per atom       ...     2575
UseSFitting                                  ... on
Grids setup in   0.5 sec
Initializing property integral containers    ... done (  0.0 sec)

SHARK setup successfully completed in   0.7 seconds

Maximum memory used throughout the entire STARTUP-calculation: 25.4 MB


           ************************************************************
           *        Program running with 8 parallel MPI-processes     *
           *              working on a common directory               *
           ************************************************************
-------------------------------------------------------------------------------
                                 ORCA GUESS
                   Start orbitals & Density for SCF / CASSCF
-------------------------------------------------------------------------------

------------
SCF SETTINGS
------------
Hamiltonian:
 Density Functional     Method          .... DFT(GTOs)
 Exchange Functional    Exchange        .... PBE
   PBE kappa parameter   XKappa         ....  0.804000
   PBE mue parameter    XMuePBE         ....  0.219520
 Correlation Functional Correlation     .... P86
 LDA part of GGA corr.  LDAOpt          .... VWN-5
 Gradients option       PostSCFGGA      .... off
 Hybrid DFT is turned on
   Fraction HF Exchange ScalHFX         ....  0.690000
   Scaling of DF-GGA-X  ScalDFX         ....  0.310000
   Scaling of DF-GGA-C  ScalDFC         ....  0.422400
   Scaling of DF-LDA-C  ScalLDAC        ....  0.422400
   Perturbative correction              ....  1.000000
 RI-approximation to the Coulomb term is turned on
   Number of AuxJ basis functions       .... 393
   RIJ-COSX (HFX calculated with COS-X)).... on


General Settings:
 Integral files         IntName         .... path_forw
 Hartree-Fock type      HFTyp           .... UHF
 Total Charge           Charge          ....    0
 Multiplicity           Mult            ....    2
 Number of Electrons    NEL             ....   47
 Basis Dimension        Dim             ....  312
 Nuclear Repulsion      ENuc            ....    241.9267800567 Eh

Convergence Acceleration:
 AO-DIIS                CNVDIIS         .... on
   Start iteration      DIISMaxIt       ....    12
   Startup error        DIISStart       ....  0.200000
   # of expansion vecs  DIISMaxEq       ....     5
   Bias factor          DIISBfac        ....   1.050
   Max. coefficient     DIISMaxC        ....  10.000
 MO-DIIS                CNVKDIIS        .... off
 Trust-Rad. Augm. Hess. CNVTRAH         .... auto
   Auto Start mean grad. ratio tolernc. ....  1.125000
   Auto Start start iteration           ....    50
   Auto Start num. interpolation iter.  ....    10
   Max. Number of Micro iterations      ....    24
   Max. Number of Macro iterations      .... Maxiter - #DIIS iter
   Number of Davidson start vectors     ....     2
   Converg. threshold    (grad. norm)   ....   2.000e-06
   Grad. Scal. Fac. for Micro threshold ....   0.100
   Minimum threshold for Micro iter.    ....   1.000e-02
   NR start threshold (gradient norm)   ....   1.000e-04
   Initial trust radius                 ....   0.400
   Minimum AH scaling param. (alpha)    ....   1.000
   Maximum AH scaling param. (alpha)    .... 1000.000
   Quad. conv. algorithm                .... NR
   White noise on init. David. guess    .... on
   Maximum white noise                  ....   0.010
   Pseudo random numbers                .... off
   Inactive MOs                         .... canonical
   Orbital update algorithm             .... Taylor
   Preconditioner                       .... Diag
   Full preconditioner red. dimension   ....   250
 SOSCF                 CNVSOSCF           .... on
   Start iteration     SOSCFMaxIt         ....   150
   Startup grad/error  SOSCFStart         ....  0.003300
   Hessian update      SOSCFHessUp        .... L-BFGS
   Autom. constraints  SOSCFAutoConstrain .... off
 Level Shifting         CNVShift        .... on
   Level shift para.    LevelShift      ....    0.2500
   Turn off err/grad.   ShiftErr        ....    0.0010
 Zerner damping         CNVZerner       .... off
 Static damping         CNVDamp         .... on
   Fraction old density DampFac         ....    0.7000
   Max. Damping (<1)    DampMax         ....    0.9800
   Min. Damping (>=0)   DampMin         ....    0.0000
   Turn off err/grad.   DampErr         ....    0.1000

SCF Procedure:
 Maximum # iterations   MaxIter         ....   125
 SCF integral mode      SCFMode         .... Direct
   Integral package                     .... SHARK and LIBINT hybrid scheme
 Reset frequency        DirectResetFreq ....    20
 Integral Threshold     Thresh          ....  1.000e-12 Eh
 Primitive CutOff       TCut            ....  1.000e-14 Eh

Convergence Tolerance:
 Convergence Check Mode ConvCheckMode   .... Total+1el-Energy
 Convergence forced     ConvForced      .... 0
 Energy Change          TolE            ....  1.000e-09 Eh
 1-El. energy change                    ....  1.000e-06 Eh
 Orbital Gradient       TolG            ....  2.000e-06
 Orbital Rotation angle TolX            ....  2.000e-06
 DIIS Error             TolErr          ....  1.000e-08

------------------------------
INITIAL GUESS: MODEL POTENTIAL
------------------------------
Loading Hartree-Fock densities                     ... done
Calculating cut-offs                               ... done
Initializing the effective Hamiltonian             ... done
Setting up the integral package (SHARK)            ... done
Starting the Coulomb interaction                   ... done (   0.0 sec)
Making the grid                                    ... done (   0.1 sec)
Mapping shells                                     ... done
Starting the XC term evaluation                    ... done (   0.1 sec)
  promolecular density results
     # of electrons  =     46.991805887
     EX              =    -36.310224430
     EC              =      0.015431532
     EX+EC           =    -36.294792898
Transforming the Hamiltonian                       ... done (   0.0 sec)
Diagonalizing the Hamiltonian                      ... done (   0.0 sec)
Back transforming the eigenvectors                 ... done (   0.0 sec)
Now organizing SCF variables                       ... done
                      ------------------
                      INITIAL GUESS DONE (   0.2 sec)
                      ------------------
             **** ENERGY FILE WAS UPDATED (path_forw.en.tmp) ****
Finished Guess after   0.7 sec
Maximum memory used throughout the entire GUESS-calculation: 18.1 MB


           ************************************************************
           *        Program running with 8 parallel MPI-processes     *
           *              working on a common directory               *
           ************************************************************

-------------------------------------------------------------------------------------------
                                      ORCA LEAN-SCF
                              memory conserving SCF solver
-------------------------------------------------------------------------------------------

----------------------------------------D-I-I-S--------------------------------------------
Iteration    Energy (Eh)           Delta-E    RMSDP     MaxDP     DIISErr   Damp  Time(sec)
-------------------------------------------------------------------------------------------
               ***  Starting incremental Fock matrix formation  ***
    1    -269.8649779865862683     0.00e+00  1.97e-03  2.50e-02  1.52e-01  0.700   1.7
    2    -269.9553562197217502    -9.04e-02  1.45e-03  1.87e-02  7.70e-02  0.700   1.1
                               ***Turning on AO-DIIS***
    3    -269.9999934261343242    -4.46e-02  6.38e-04  8.07e-03  4.07e-02  0.700   1.0
    4    -270.0277674590390120    -2.78e-02  1.68e-03  2.40e-02  3.40e-02  0.000   1.0
    5    -270.0932782296169989    -6.55e-02  4.24e-04  8.22e-03  1.86e-02  0.000   1.0
    6    -270.0955577063542705    -2.28e-03  4.20e-04  7.42e-03  1.20e-02  0.000   1.0
    7    -270.0973441855046531    -1.79e-03  4.12e-04  8.01e-03  1.16e-02  0.000   1.0
    8    -270.0988585335683183    -1.51e-03  4.26e-04  7.01e-03  7.56e-03  0.000   1.0
    9    -270.0998010967502978    -9.43e-04  2.47e-04  3.99e-03  5.56e-03  0.000   1.0
                              *** Initializing SOSCF ***
---------------------------------------S-O-S-C-F--------------------------------------
Iteration    Energy (Eh)           Delta-E    RMSDP     MaxDP     MaxGrad    Time(sec)
--------------------------------------------------------------------------------------
   10    -270.1001498292819178    -3.49e-04  1.97e-04  2.91e-03  3.16e-03     1.0
               *** Restarting incremental Fock matrix formation ***
   11    -270.1002838344606971    -1.34e-04  9.38e-05  1.43e-03  2.30e-03     1.6
   12    -270.1003136540222158    -2.98e-05  1.22e-04  2.22e-03  7.90e-04     1.4
   13    -270.1003363513593740    -2.27e-05  5.97e-05  9.73e-04  3.56e-04     1.4
   14    -270.1003424304158216    -6.08e-06  3.97e-05  5.57e-04  2.54e-04     1.4
   15    -270.1003447908873341    -2.36e-06  1.48e-05  2.73e-04  1.93e-04     1.3
   16    -270.1003456092596480    -8.18e-07  1.83e-05  3.40e-04  1.66e-04     1.3
   17    -270.1003463639775646    -7.55e-07  1.54e-05  3.12e-04  1.08e-04     1.3
   18    -270.1003467683967756    -4.04e-07  4.66e-06  8.72e-05  3.31e-05     1.3
   19    -270.1003468439098469    -7.55e-08  3.20e-06  4.01e-05  2.37e-05     1.3
   20    -270.1003468633346074    -1.94e-08  1.24e-06  2.26e-05  6.93e-06     1.2
   21    -270.1003468664391676    -3.10e-09  5.32e-07  1.48e-05  3.04e-06     1.2
   22    -270.1003468668981213    -4.59e-10  2.53e-07  6.60e-06  1.17e-06     1.1
                 **** Energy Check signals convergence ****

               *****************************************************
               *                     SUCCESS                       *
               *           SCF CONVERGED AFTER  22 CYCLES          *
               *****************************************************

Recomputing exchange energy using gridx3       ... done (    2.275 sec)
Old exchange energy                            :    -25.778831027 Eh
New exchange energy                            :    -25.778838481 Eh
Exchange energy change after final integration :     -0.000007454 Eh
Total energy after final integration           :   -270.100354322 Eh
             **** ENERGY FILE WAS UPDATED (path_forw.en.tmp) ****

----------------
TOTAL SCF ENERGY
----------------

Total Energy       :       -270.10035432166279 Eh           -7349.80430 eV

Components:
Nuclear Repulsion  :        241.92678005669302 Eh            6583.16237 eV
Electronic Energy  :       -512.02712692389002 Eh          -13932.96646 eV
One Electron Energy:       -845.77748128314306 Eh          -23014.77531 eV
Two Electron Energy:        333.75035435925304 Eh            9081.80885 eV

Virial components:
Potential Energy   :       -539.49737095842806 Eh          -14680.46980 eV
Kinetic Energy     :        269.39701663676522 Eh            7330.66551 eV
Virial Ratio       :          2.00261078498076

DFT components:
N(Alpha)           :       23.999980120105 electrons
N(Beta)            :       22.999978878799 electrons
N(Total)           :       46.999958998903 electrons
E(X)               :      -11.525085992932 Eh       
E(C)               :       -0.713098450900 Eh       
E(XC)              :      -12.238184443832 Eh       

---------------
SCF CONVERGENCE
---------------

  Last Energy change         ...    4.5895e-10  Tolerance :   1.0000e-09
  Last MAX-Density change    ...    6.5952e-06  Tolerance :   1.0000e-08
  Last RMS-Density change    ...    2.5297e-07  Tolerance :   1.0000e-09
  Last DIIS Error            ...    3.1579e-03  Tolerance :   1.0000e-08
  Last Orbital Gradient      ...    1.1692e-06  Tolerance :   2.0000e-06
  Last Orbital Rotation      ...    6.0302e-06  Tolerance :   2.0000e-06


----------------------
UHF SPIN CONTAMINATION
----------------------

Warning: in a DFT calculation there is little theoretical justification to 
         calculate <S**2> as in Hartree-Fock theory. We will do it anyways
         but you should keep in mind that the values have only limited relevance

Expectation value of <S**2>     :     0.851995
Ideal value S*(S+1) for S=0.5   :     0.750000
Deviation                       :     0.101995

----------------
ORBITAL ENERGIES
----------------
                 SPIN UP ORBITALS
  NO   OCC          E(Eh)            E(eV) 
   0   1.0000     -20.015298      -544.6440 
   1   1.0000     -10.836412      -294.8738 
   2   1.0000     -10.821138      -294.4581 
   3   1.0000     -10.809829      -294.1504 
   4   1.0000     -10.809335      -294.1370 
   5   1.0000     -10.802949      -293.9632 
   6   1.0000      -1.186372       -32.2828 
   7   1.0000      -1.028764       -27.9941 
   8   1.0000      -0.876447       -23.8493 
   9   1.0000      -0.867010       -23.5926 
  10   1.0000      -0.709056       -19.2944 
  11   1.0000      -0.664886       -18.0925 
  12   1.0000      -0.617709       -16.8087 
  13   1.0000      -0.588805       -16.0222 
  14   1.0000      -0.542724       -14.7683 
  15   1.0000      -0.511555       -13.9201 
  16   1.0000      -0.496077       -13.4990 
  17   1.0000      -0.477197       -12.9852 
  18   1.0000      -0.446396       -12.1471 
  19   1.0000      -0.437921       -11.9164 
  20   1.0000      -0.429314       -11.6822 
  21   1.0000      -0.425821       -11.5872 
  22   1.0000      -0.415216       -11.2986 
  23   1.0000      -0.295560        -8.0426 
  24   0.0000       0.095384         2.5955 
  25   0.0000       0.111807         3.0424 
  26   0.0000       0.124620         3.3911 
  27   0.0000       0.140545         3.8244 
  28   0.0000       0.144592         3.9346 
  29   0.0000       0.161744         4.4013 
  30   0.0000       0.167202         4.5498 
  31   0.0000       0.168581         4.5873 
  32   0.0000       0.192315         5.2332 
  33   0.0000       0.206218         5.6115 
  34   0.0000       0.244948         6.6654 

                 SPIN DOWN ORBITALS
  NO   OCC          E(Eh)            E(eV) 
   0   1.0000     -19.986370      -543.8568 
   1   1.0000     -10.841510      -295.0125 
   2   1.0000     -10.810525      -294.1693 
   3   1.0000     -10.809280      -294.1355 
   4   1.0000     -10.809003      -294.1279 
   5   1.0000     -10.802916      -293.9623 
   6   1.0000      -1.098964       -29.9043 
   7   1.0000      -1.016977       -27.6734 
   8   1.0000      -0.871248       -23.7079 
   9   1.0000      -0.860895       -23.4261 
  10   1.0000      -0.706732       -19.2312 
  11   1.0000      -0.658025       -17.9058 
  12   1.0000      -0.614479       -16.7208 
  13   1.0000      -0.579854       -15.7786 
  14   1.0000      -0.520544       -14.1647 
  15   1.0000      -0.490225       -13.3397 
  16   1.0000      -0.478742       -13.0272 
  17   1.0000      -0.444242       -12.0884 
  18   1.0000      -0.436690       -11.8829 
  19   1.0000      -0.431421       -11.7396 
  20   1.0000      -0.425606       -11.5813 
  21   1.0000      -0.387588       -10.5468 
  22   1.0000      -0.327475        -8.9110 
  23   0.0000       0.030659         0.8343 
  24   0.0000       0.098657         2.6846 
  25   0.0000       0.128194         3.4883 
  26   0.0000       0.130360         3.5473 
  27   0.0000       0.141398         3.8476 
  28   0.0000       0.146103         3.9757 
  29   0.0000       0.162323         4.4170 
  30   0.0000       0.167124         4.5477 
  31   0.0000       0.173280         4.7152 
  32   0.0000       0.192987         5.2514 
  33   0.0000       0.208970         5.6864 
*Only the first 10 virtual orbitals were printed.

                    ********************************
                    * MULLIKEN POPULATION ANALYSIS *
                    ********************************

--------------------------------------------
MULLIKEN ATOMIC CHARGES AND SPIN POPULATIONS
--------------------------------------------
   0 C :   -0.128248    0.031674
   1 C :   -0.127130    0.000627
   2 C :   -0.085962   -0.071460
   3 C :   -0.213327    0.647048
   4 C :   -0.007100   -0.320111
   5 H :    0.070798   -0.015318
   6 H :    0.083998   -0.006209
   7 H :    0.075966   -0.000570
   8 H :    0.088246    0.000034
   9 H :    0.071194    0.020300
  10 H :    0.072754    0.031637
  11 H :    0.116077   -0.045734
  12 H :    0.142651    0.020360
  13 O :   -0.379643    0.735331
  14 H :    0.219727   -0.027609
Sum of atomic charges         :    0.0000000
Sum of atomic spin populations:    1.0000000

-----------------------------------------------------
MULLIKEN REDUCED ORBITAL CHARGES AND SPIN POPULATIONS
-----------------------------------------------------
CHARGE
  0 C s       :     3.123381  s :     3.123381
      pz      :     1.029201  p :     2.891663
      px      :     0.990098
      py      :     0.872365
      dz2     :     0.020523  d :     0.107179
      dxz     :     0.026534
      dyz     :     0.013722
      dx2y2   :     0.024687
      dxy     :     0.021713
      f0      :     0.000770  f :     0.006024
      f+1     :     0.000723
      f-1     :     0.000550
      f+2     :     0.000432
      f-2     :     0.000760
      f+3     :     0.001454
      f-3     :     0.001335

  1 C s       :     3.117710  s :     3.117710
      pz      :     1.058676  p :     2.899601
      px      :     0.871900
      py      :     0.969025
      dz2     :     0.023066  d :     0.103744
      dxz     :     0.015138
      dyz     :     0.019599
      dx2y2   :     0.026092
      dxy     :     0.019850
      f0      :     0.000915  f :     0.006074
      f+1     :     0.000564
      f-1     :     0.000488
      f+2     :     0.000552
      f-2     :     0.000796
      f+3     :     0.001362
      f-3     :     0.001399

  2 C s       :     3.095016  s :     3.095016
      pz      :     1.020354  p :     2.872634
      px      :     0.974513
      py      :     0.877766
      dz2     :     0.017609  d :     0.112102
      dxz     :     0.030365
      dyz     :     0.017029
      dx2y2   :     0.025730
      dxy     :     0.021369
      f0      :     0.000753  f :     0.006211
      f+1     :     0.000815
      f-1     :     0.000546
      f+2     :     0.000529
      f-2     :     0.000797
      f+3     :     0.001454
      f-3     :     0.001317

  3 C s       :     3.223234  s :     3.223234
      pz      :     0.945094  p :     2.876832
      px      :     0.951316
      py      :     0.980422
      dz2     :     0.008215  d :     0.105576
      dxz     :     0.017280
      dyz     :     0.009102
      dx2y2   :     0.030439
      dxy     :     0.040541
      f0      :     0.001004  f :     0.007685
      f+1     :     0.000787
      f-1     :     0.000867
      f+2     :     0.000893
      f-2     :     0.000282
      f+3     :     0.001534
      f-3     :     0.002319

  4 C s       :     3.096567  s :     3.096567
      pz      :     0.810285  p :     2.766679
      px      :     0.970810
      py      :     0.985584
      dz2     :     0.022553  d :     0.135426
      dxz     :     0.026576
      dyz     :     0.011697
      dx2y2   :     0.032423
      dxy     :     0.042176
      f0      :     0.001488  f :     0.008428
      f+1     :     0.000752
      f-1     :     0.000937
      f+2     :     0.001052
      f-2     :     0.000340
      f+3     :     0.001561
      f-3     :     0.002298

  5 H s       :     0.888688  s :     0.888688
      pz      :     0.018959  p :     0.038451
      px      :     0.010923
      py      :     0.008569
      dz2     :     0.000576  d :     0.002063
      dxz     :     0.000667
      dyz     :     0.000610
      dx2y2   :     0.000095
      dxy     :     0.000115

  6 H s       :     0.874526  s :     0.874526
      pz      :     0.013310  p :     0.039376
      px      :     0.017087
      py      :     0.008979
      dz2     :     0.000551  d :     0.002100
      dxz     :     0.000422
      dyz     :     0.000265
      dx2y2   :     0.000361
      dxy     :     0.000501

  7 H s       :     0.882485  s :     0.882485
      pz      :     0.011768  p :     0.039468
      px      :     0.009433
      py      :     0.018268
      dz2     :     0.000475  d :     0.002080
      dxz     :     0.000159
      dyz     :     0.000447
      dx2y2   :     0.000334
      dxy     :     0.000666

  8 H s       :     0.870710  s :     0.870710
      pz      :     0.020334  p :     0.038931
      px      :     0.008612
      py      :     0.009984
      dz2     :     0.000547  d :     0.002113
      dxz     :     0.000723
      dyz     :     0.000746
      dx2y2   :     0.000034
      dxy     :     0.000063

  9 H s       :     0.886876  s :     0.886876
      pz      :     0.013383  p :     0.039824
      px      :     0.017171
      py      :     0.009270
      dz2     :     0.000581  d :     0.002107
      dxz     :     0.000411
      dyz     :     0.000293
      dx2y2   :     0.000345
      dxy     :     0.000477

 10 H s       :     0.886385  s :     0.886385
      pz      :     0.018375  p :     0.038790
      px      :     0.011457
      py      :     0.008958
      dz2     :     0.000601  d :     0.002071
      dxz     :     0.000608
      dyz     :     0.000572
      dx2y2   :     0.000135
      dxy     :     0.000154

 11 H s       :     0.845520  s :     0.845520
      pz      :     0.010633  p :     0.036453
      px      :     0.010626
      py      :     0.015195
      dz2     :     0.000125  d :     0.001949
      dxz     :     0.000272
      dyz     :     0.000351
      dx2y2   :     0.000780
      dxy     :     0.000421

 12 H s       :     0.820598  s :     0.820598
      pz      :     0.008282  p :     0.034891
      px      :     0.011368
      py      :     0.015241
      dz2     :     0.000132  d :     0.001860
      dxz     :     0.000210
      dyz     :     0.000301
      dx2y2   :     0.000783
      dxy     :     0.000434

 13 O s       :     3.879432  s :     3.879432
      pz      :     1.213663  p :     4.486424
      px      :     1.783883
      py      :     1.488878
      dz2     :     0.004804  d :     0.013370
      dxz     :     0.000641
      dyz     :     0.001070
      dx2y2   :     0.002565
      dxy     :     0.004290
      f0      :     0.000028  f :     0.000417
      f+1     :     0.000026
      f-1     :     0.000025
      f+2     :     0.000018
      f-2     :     0.000032
      f+3     :     0.000224
      f-3     :     0.000065

 14 H s       :     0.694198  s :     0.694198
      pz      :     0.019307  p :     0.078093
      px      :     0.032403
      py      :     0.026382
      dz2     :     0.000855  d :     0.007982
      dxz     :     0.000459
      dyz     :     0.001275
      dx2y2   :     0.002817
      dxy     :     0.002576


SPIN
  0 C s       :     0.007018  s :     0.007018
      pz      :     0.010453  p :     0.029755
      px      :     0.006156
      py      :     0.013146
      dz2     :     0.000000  d :    -0.004819
      dxz     :    -0.001102
      dyz     :    -0.003449
      dx2y2   :    -0.000044
      dxy     :    -0.000224
      f0      :    -0.000063  f :    -0.000280
      f+1     :    -0.000015
      f-1     :    -0.000008
      f+2     :    -0.000115
      f-2     :    -0.000045
      f+3     :    -0.000012
      f-3     :    -0.000022

  1 C s       :    -0.001345  s :    -0.001345
      pz      :     0.001774  p :     0.002147
      px      :     0.000799
      py      :    -0.000425
      dz2     :     0.000027  d :    -0.000153
      dxz     :    -0.000090
      dyz     :    -0.000121
      dx2y2   :     0.000083
      dxy     :    -0.000053
      f0      :    -0.000003  f :    -0.000021
      f+1     :    -0.000001
      f-1     :     0.000001
      f+2     :    -0.000005
      f-2     :    -0.000003
      f+3     :    -0.000007
      f-3     :    -0.000003

  2 C s       :    -0.015851  s :    -0.015851
      pz      :    -0.026785  p :    -0.067330
      px      :    -0.010388
      py      :    -0.030157
      dz2     :     0.000265  d :     0.011047
      dxz     :     0.003114
      dyz     :     0.007449
      dx2y2   :     0.000084
      dxy     :     0.000135
      f0      :     0.000232  f :     0.000674
      f+1     :     0.000021
      f-1     :    -0.000000
      f+2     :     0.000252
      f-2     :     0.000111
      f+3     :     0.000019
      f-3     :     0.000039

  3 C s       :     0.061410  s :     0.061410
      pz      :     0.500250  p :     0.587150
      px      :     0.045626
      py      :     0.041274
      dz2     :    -0.002989  d :    -0.000363
      dxz     :    -0.002555
      dyz     :     0.000671
      dx2y2   :     0.001764
      dxy     :     0.002746
      f0      :    -0.000237  f :    -0.001148
      f+1     :    -0.000367
      f-1     :    -0.000383
      f+2     :    -0.000120
      f-2     :     0.000016
      f+3     :    -0.000045
      f-3     :    -0.000012

  4 C s       :    -0.027787  s :    -0.027787
      pz      :    -0.237689  p :    -0.305744
      px      :    -0.043121
      py      :    -0.024933
      dz2     :     0.006161  d :     0.011561
      dxz     :     0.007169
      dyz     :    -0.000588
      dx2y2   :     0.000077
      dxy     :    -0.001259
      f0      :     0.000826  f :     0.001858
      f+1     :     0.000219
      f-1     :     0.000180
      f+2     :     0.000472
      f-2     :    -0.000001
      f+3     :     0.000111
      f-3     :     0.000051

  5 H s       :    -0.015585  s :    -0.015585
      pz      :     0.000070  p :     0.000274
      px      :     0.000110
      py      :     0.000094
      dz2     :    -0.000010  d :    -0.000007
      dxz     :    -0.000003
      dyz     :     0.000004
      dx2y2   :    -0.000000
      dxy     :     0.000001

  6 H s       :    -0.006256  s :    -0.006256
      pz      :     0.000028  p :     0.000039
      px      :    -0.000021
      py      :     0.000032
      dz2     :     0.000003  d :     0.000008
      dxz     :    -0.000001
      dyz     :     0.000003
      dx2y2   :    -0.000000
      dxy     :     0.000004

  7 H s       :    -0.000633  s :    -0.000633
      pz      :     0.000006  p :     0.000060
      px      :     0.000006
      py      :     0.000047
      dz2     :     0.000001  d :     0.000003
      dxz     :     0.000000
      dyz     :     0.000000
      dx2y2   :     0.000001
      dxy     :     0.000000

  8 H s       :     0.000026  s :     0.000026
      pz      :    -0.000012  p :     0.000008
      px      :     0.000004
      py      :     0.000016
      dz2     :    -0.000001  d :    -0.000000
      dxz     :     0.000000
      dyz     :     0.000001
      dx2y2   :    -0.000000
      dxy     :    -0.000000

  9 H s       :     0.020368  s :     0.020368
      pz      :    -0.000071  p :    -0.000072
      px      :     0.000042
      py      :    -0.000042
      dz2     :    -0.000002  d :     0.000004
      dxz     :     0.000004
      dyz     :    -0.000004
      dx2y2   :     0.000006
      dxy     :    -0.000000

 10 H s       :     0.031358  s :     0.031358
      pz      :     0.000297  p :     0.000261
      px      :     0.000045
      py      :    -0.000081
      dz2     :     0.000016  d :     0.000018
      dxz     :     0.000007
      dyz     :    -0.000005
      dx2y2   :     0.000000
      dxy     :     0.000000

 11 H s       :    -0.051895  s :    -0.051895
      pz      :     0.006057  p :     0.005727
      px      :    -0.000134
      py      :    -0.000196
      dz2     :    -0.000022  d :     0.000434
      dxz     :     0.000136
      dyz     :     0.000244
      dx2y2   :     0.000031
      dxy     :     0.000045

 12 H s       :     0.024294  s :     0.024294
      pz      :    -0.003374  p :    -0.003718
      px      :    -0.000101
      py      :    -0.000243
      dz2     :     0.000010  d :    -0.000215
      dxz     :    -0.000048
      dyz     :    -0.000138
      dx2y2   :    -0.000018
      dxy     :    -0.000021

 13 O s       :     0.004487  s :     0.004487
      pz      :     0.678322  p :     0.731486
      px      :     0.032093
      py      :     0.021071
      dz2     :    -0.000961  d :    -0.000541
      dxz     :    -0.000054
      dyz     :     0.000247
      dx2y2   :     0.000069
      dxy     :     0.000158
      f0      :     0.000006  f :    -0.000100
      f+1     :    -0.000016
      f-1     :    -0.000103
      f+2     :     0.000008
      f-2     :    -0.000003
      f+3     :     0.000005
      f-3     :     0.000001

 14 H s       :    -0.030167  s :    -0.030167
      pz      :     0.004198  p :     0.001686
      px      :    -0.001753
      py      :    -0.000759
      dz2     :    -0.000099  d :     0.000872
      dxz     :     0.000235
      dyz     :     0.000677
      dx2y2   :    -0.000012
      dxy     :     0.000071



                     *******************************
                     * LOEWDIN POPULATION ANALYSIS *
                     *******************************

-------------------------------------------
LOEWDIN ATOMIC CHARGES AND SPIN POPULATIONS
-------------------------------------------
   0 C :   -0.013596   -0.009219
   1 C :    0.002614   -0.001000
   2 C :   -0.020867    0.024008
   3 C :    0.012578    0.379086
   4 C :    0.009157   -0.109384
   5 H :    0.017475   -0.007496
   6 H :    0.018733   -0.002365
   7 H :    0.004831   -0.000269
   8 H :    0.017798   -0.000270
   9 H :    0.015466    0.008882
  10 H :    0.016959    0.015783
  11 H :   -0.004574    0.024456
  12 H :    0.009093   -0.011625
  13 O :    0.062328    0.665156
  14 H :   -0.147996    0.024259

----------------------------------------------------
LOEWDIN REDUCED ORBITAL CHARGES AND SPIN POPULATIONS
----------------------------------------------------
CHARGE
  0 C s       :     2.691935  s :     2.691935
      pz      :     1.000074  p :     2.878609
      px      :     0.954181
      py      :     0.924354
      dz2     :     0.075999  d :     0.400871
      dxz     :     0.088545
      dyz     :     0.047823
      dx2y2   :     0.098311
      dxy     :     0.090194
      f0      :     0.004666  f :     0.042181
      f+1     :     0.004097
      f-1     :     0.004962
      f+2     :     0.004641
      f-2     :     0.005550
      f+3     :     0.009357
      f-3     :     0.008908

  1 C s       :     2.691989  s :     2.691989
      pz      :     1.010109  p :     2.873818
      px      :     0.910844
      py      :     0.952866
      dz2     :     0.084334  d :     0.390220
      dxz     :     0.053175
      dyz     :     0.066243
      dx2y2   :     0.097830
      dxy     :     0.088638
      f0      :     0.005659  f :     0.041359
      f+1     :     0.004782
      f-1     :     0.002731
      f+2     :     0.005471
      f-2     :     0.006068
      f+3     :     0.009345
      f-3     :     0.007303

  2 C s       :     2.688804  s :     2.688804
      pz      :     0.996480  p :     2.880886
      px      :     0.949992
      py      :     0.934414
      dz2     :     0.064450  d :     0.407994
      dxz     :     0.099007
      dyz     :     0.056951
      dx2y2   :     0.098260
      dxy     :     0.089325
      f0      :     0.004635  f :     0.043182
      f+1     :     0.004680
      f-1     :     0.005022
      f+2     :     0.004986
      f-2     :     0.005543
      f+3     :     0.009557
      f-3     :     0.008759

  3 C s       :     2.740186  s :     2.740186
      pz      :     0.809688  p :     2.808429
      px      :     1.029764
      py      :     0.968976
      dz2     :     0.033765  d :     0.395956
      dxz     :     0.053216
      dyz     :     0.036495
      dx2y2   :     0.114219
      dxy     :     0.158262
      f0      :     0.002919  f :     0.042850
      f+1     :     0.003875
      f-1     :     0.003062
      f+2     :     0.006302
      f-2     :     0.001893
      f+3     :     0.008518
      f-3     :     0.016282

  4 C s       :     2.740870  s :     2.740870
      pz      :     0.724179  p :     2.748007
      px      :     1.044795
      py      :     0.979033
      dz2     :     0.076150  d :     0.453375
      dxz     :     0.070855
      dyz     :     0.040634
      dx2y2   :     0.112837
      dxy     :     0.152899
      f0      :     0.006890  f :     0.048591
      f+1     :     0.004280
      f-1     :     0.003565
      f+2     :     0.007245
      f-2     :     0.002383
      f+3     :     0.008229
      f-3     :     0.015999

  5 H s       :     0.807706  s :     0.807706
      pz      :     0.066561  p :     0.146736
      px      :     0.041434
      py      :     0.038741
      dz2     :     0.009349  d :     0.028083
      dxz     :     0.008817
      dyz     :     0.007538
      dx2y2   :     0.001030
      dxy     :     0.001349

  6 H s       :     0.805927  s :     0.805927
      pz      :     0.051540  p :     0.146522
      px      :     0.056786
      py      :     0.038197
      dz2     :     0.007330  d :     0.028817
      dxz     :     0.007342
      dyz     :     0.003132
      dx2y2   :     0.005164
      dxy     :     0.005849

  7 H s       :     0.817344  s :     0.817344
      pz      :     0.048172  p :     0.149116
      px      :     0.039254
      py      :     0.061690
      dz2     :     0.006436  d :     0.028709
      dxz     :     0.001852
      dyz     :     0.007534
      dx2y2   :     0.005747
      dxy     :     0.007141

  8 H s       :     0.803251  s :     0.803251
      pz      :     0.071655  p :     0.149570
      px      :     0.038109
      py      :     0.039805
      dz2     :     0.009929  d :     0.029380
      dxz     :     0.008648
      dyz     :     0.009783
      dx2y2   :     0.000278
      dxy     :     0.000742

  9 H s       :     0.808335  s :     0.808335
      pz      :     0.053173  p :     0.147556
      px      :     0.055244
      py      :     0.039139
      dz2     :     0.007694  d :     0.028643
      dxz     :     0.007257
      dyz     :     0.003477
      dx2y2   :     0.004770
      dxy     :     0.005446

 10 H s       :     0.806138  s :     0.806138
      pz      :     0.065388  p :     0.148500
      px      :     0.042904
      py      :     0.040208
      dz2     :     0.009341  d :     0.028404
      dxz     :     0.008476
      dyz     :     0.007114
      dx2y2   :     0.001602
      dxy     :     0.001871

 11 H s       :     0.820435  s :     0.820435
      pz      :     0.045558  p :     0.156055
      px      :     0.046979
      py      :     0.063519
      dz2     :     0.002556  d :     0.028084
      dxz     :     0.003341
      dyz     :     0.005346
      dx2y2   :     0.008905
      dxy     :     0.007936

 12 H s       :     0.814450  s :     0.814450
      pz      :     0.036511  p :     0.149069
      px      :     0.047025
      py      :     0.065533
      dz2     :     0.002876  d :     0.027388
      dxz     :     0.002667
      dyz     :     0.004534
      dx2y2   :     0.009169
      dxy     :     0.008142

 13 O s       :     3.502262  s :     3.502262
      pz      :     1.160246  p :     4.409009
      px      :     1.710855
      py      :     1.537907
      dz2     :     0.010021  d :     0.024857
      dxz     :     0.001196
      dyz     :     0.001305
      dx2y2   :     0.003964
      dxy     :     0.008372
      f0      :     0.000303  f :     0.001544
      f+1     :     0.000131
      f-1     :     0.000228
      f+2     :     0.000057
      f-2     :     0.000096
      f+3     :     0.000521
      f-3     :     0.000208

 14 H s       :     0.712552  s :     0.712552
      pz      :     0.063705  p :     0.346793
      px      :     0.122652
      py      :     0.160437
      dz2     :     0.008961  d :     0.088651
      dxz     :     0.005712
      dyz     :     0.016722
      dx2y2   :     0.030617
      dxy     :     0.026639


SPIN
  0 C s       :     0.001013  s :     0.001013
      pz      :     0.002055  p :     0.009295
      px      :     0.001303
      py      :     0.005937
      dz2     :    -0.002057  d :    -0.017697
      dxz     :    -0.003340
      dyz     :    -0.010382
      dx2y2   :    -0.000797
      dxy     :    -0.001122
      f0      :    -0.000494  f :    -0.001831
      f+1     :    -0.000053
      f-1     :    -0.000076
      f+2     :    -0.000611
      f-2     :    -0.000326
      f+3     :    -0.000146
      f-3     :    -0.000125

  1 C s       :    -0.000083  s :    -0.000083
      pz      :    -0.000013  p :     0.000255
      px      :     0.000331
      py      :    -0.000063
      dz2     :    -0.000158  d :    -0.001067
      dxz     :    -0.000117
      dyz     :    -0.000427
      dx2y2   :    -0.000127
      dxy     :    -0.000237
      f0      :    -0.000003  f :    -0.000105
      f+1     :    -0.000005
      f-1     :    -0.000005
      f+2     :    -0.000017
      f-2     :    -0.000022
      f+3     :    -0.000051
      f-3     :    -0.000001

  2 C s       :    -0.002506  s :    -0.002506
      pz      :    -0.004202  p :    -0.018463
      px      :    -0.003201
      py      :    -0.011060
      dz2     :     0.001490  d :     0.040547
      dxz     :     0.010854
      dyz     :     0.024629
      dx2y2   :     0.002050
      dxy     :     0.001524
      f0      :     0.001444  f :     0.004429
      f+1     :     0.000096
      f-1     :     0.000061
      f+2     :     0.001619
      f-2     :     0.000764
      f+3     :     0.000269
      f-3     :     0.000176

  3 C s       :     0.015896  s :     0.015896
      pz      :     0.365707  p :     0.389612
      px      :     0.012897
      py      :     0.011007
      dz2     :    -0.001630  d :    -0.022584
      dxz     :    -0.017707
      dyz     :     0.001076
      dx2y2   :    -0.002118
      dxy     :    -0.002204
      f0      :    -0.000777  f :    -0.003838
      f+1     :    -0.000410
      f-1     :    -0.000433
      f+2     :    -0.001538
      f-2     :    -0.000025
      f+3     :    -0.000474
      f-3     :    -0.000181

  4 C s       :    -0.004926  s :    -0.004926
      pz      :    -0.151775  p :    -0.168076
      px      :    -0.010902
      py      :    -0.005398
      dz2     :     0.022250  d :     0.054828
      dxz     :     0.027955
      dyz     :    -0.000778
      dx2y2   :     0.003577
      dxy     :     0.001825
      f0      :     0.003523  f :     0.008789
      f+1     :     0.000740
      f-1     :     0.000202
      f+2     :     0.003476
      f-2     :     0.000028
      f+3     :     0.000529
      f-3     :     0.000291

  5 H s       :    -0.007434  s :    -0.007434
      pz      :     0.000045  p :    -0.000196
      px      :     0.000022
      py      :    -0.000263
      dz2     :     0.000028  d :     0.000134
      dxz     :     0.000034
      dyz     :     0.000078
      dx2y2   :    -0.000001
      dxy     :    -0.000005

  6 H s       :    -0.003222  s :    -0.003222
      pz      :     0.000007  p :     0.000692
      px      :     0.000245
      py      :     0.000440
      dz2     :     0.000030  d :     0.000165
      dxz     :     0.000015
      dyz     :     0.000035
      dx2y2   :     0.000007
      dxy     :     0.000078

  7 H s       :    -0.000253  s :    -0.000253
      pz      :    -0.000061  p :    -0.000032
      px      :     0.000017
      py      :     0.000012
      dz2     :     0.000004  d :     0.000016
      dxz     :     0.000002
      dyz     :     0.000000
      dx2y2   :     0.000004
      dxy     :     0.000005

  8 H s       :    -0.000200  s :    -0.000200
      pz      :    -0.000073  p :    -0.000069
      px      :     0.000021
      py      :    -0.000016
      dz2     :     0.000004  d :    -0.000001
      dxz     :     0.000005
      dyz     :    -0.000006
[...]
     37       0.009408  -0.699906  -0.139123   0.193914  -0.018353  -0.009319
     38       0.005873  -0.424720  -0.083629   0.115294  -0.009865  -0.004268
     39       0.000116   0.000204   0.000077  -0.000074  -0.000127   0.000255
     40       0.000058  -0.000479  -0.000010   0.000049   0.000080  -0.000014
     41       0.000043   0.001588   0.000124  -0.000144   0.000120   0.000058
     42      -0.000671  -0.000260  -0.000030   0.000210   0.000124  -0.001083
     43      -0.000190  -0.000119  -0.000675   0.001491   0.000313  -0.001217
     44      -0.000493   0.003891   0.001189  -0.001443  -0.000268   0.001452
                 42         43         44    
      0       0.038639  -0.001105  -0.000135
      1       0.013101  -0.000563   0.000201
      2       0.056709   0.000223   0.000095
      3      -0.004810  -0.000250  -0.000021
      4      -0.025062  -0.001084   0.000037
      5       0.056656  -0.000500   0.000062
      6      -0.002514   0.002790  -0.000053
      7       0.000169  -0.002870  -0.000044
      8       0.005597  -0.000105   0.000044
      9       0.000121   0.050964   0.000455
     10       0.000284   0.069180   0.000423
     11       0.000023   0.007870  -0.000008
     12      -0.000252  -0.003937  -0.001211
     13       0.000991   0.002691  -0.001048
     14       0.001881   0.000071  -0.001366
     15       0.084785   0.001365   0.000820
     16       0.002595   0.000512  -0.000717
     17      -0.349014  -0.005496  -0.000414
     18      -0.543011   0.007444   0.002283
     19      -0.161135   0.002369   0.001487
     20      -0.333825   0.003617   0.000786
     21       0.029915   0.000829  -0.000017
     22       0.394634   0.006035   0.000299
     23      -0.214089  -0.002370  -0.000291
     24       0.027778   0.000022  -0.000087
     25      -0.092125   0.001769  -0.000084
     26      -0.462402   0.007009  -0.000622
     27       0.037696  -0.018390  -0.000066
     28      -0.009948   0.007567   0.000494
     29      -0.022969   0.010351   0.000020
     30      -0.012055   0.000084  -0.000032
     31       0.006621   0.001130   0.000328
     32      -0.043872  -0.002211  -0.000470
     33      -0.003080  -0.588113  -0.000897
     34      -0.003512  -0.797867  -0.003088
     35      -0.000917  -0.090667  -0.000133
     36       0.007205   0.019265   0.000226
     37      -0.010453  -0.023506  -0.001099
     38      -0.007645  -0.013038  -0.002851
     39      -0.000070   0.000054  -0.036628
     40      -0.000112   0.000134  -0.045621
     41      -0.000262  -0.000042   0.022210
     42       0.000299  -0.000829   0.590632
     43       0.000427  -0.002691   0.731623
     44      -0.001319   0.003424  -0.334559


-----------
IR SPECTRUM
-----------

 Mode   freq       eps      Int      T**2         TX        TY        TZ
       cm**-1   L/(mol*cm) km/mol    a.u.
----------------------------------------------------------------------------
  6:    127.49   0.000244    1.23  0.000597  ( 0.014427 -0.014913  0.012911)
  7:    204.81   0.001184    5.98  0.001804  (-0.034156  0.025029  0.003346)
  8:    227.93   0.018899   95.51  0.025875  ( 0.115205 -0.111026  0.016614)
  9:    318.29   0.002702   13.65  0.002649  (-0.011902  0.016210  0.047379)
 10:    409.25   0.001783    9.01  0.001360  ( 0.012648  0.003169 -0.034492)
 11:    466.56   0.004572   23.11  0.003058  (-0.033082  0.015967  0.041338)
 12:    598.42   0.000235    1.19  0.000123  ( 0.004102 -0.000631 -0.010271)
 13:    767.40   0.000583    2.94  0.000237  ( 0.012825 -0.007453  0.004114)
 14:    831.01   0.001046    5.29  0.000393  ( 0.000934  0.003104 -0.019551)
 15:    850.57   0.000167    0.84  0.000061  (-0.001102 -0.006412  0.004334)
 16:    909.95   0.000977    4.94  0.000335  (-0.001055 -0.002772 -0.018065)
 17:    916.51   0.001587    8.02  0.000540  ( 0.012732  0.009431 -0.017011)
 18:    934.58   0.000434    2.19  0.000145  ( 0.011801 -0.001632  0.001693)
 19:    973.29   0.012005   60.67  0.003849  (-0.010804  0.013934 -0.059483)
 20:   1040.02   0.004202   21.23  0.001261  (-0.008296  0.005025 -0.034157)
 21:   1048.34   0.000054    0.27  0.000016  ( 0.003077  0.001146 -0.002313)
 22:   1056.18   0.000196    0.99  0.000058  ( 0.006136 -0.002108 -0.003974)
 23:   1147.35   0.000109    0.55  0.000030  ( 0.001854 -0.002473 -0.004480)
 24:   1195.18   0.005966   30.15  0.001558  ( 0.009051 -0.009097  0.037322)
 25:   1240.62   0.002665   13.47  0.000670  (-0.007426  0.004276 -0.024430)
 26:   1251.89   0.000588    2.97  0.000147  (-0.003921 -0.003417 -0.010933)
 27:   1313.68   0.003184   16.09  0.000756  ( 0.016308  0.000998  0.022124)
 28:   1319.65   0.000142    0.72  0.000033  (-0.000846  0.005700  0.000516)
 29:   1350.76   0.001552    7.84  0.000359  ( 0.008583 -0.004913  0.016146)
 30:   1351.14   0.000274    1.38  0.000063  (-0.001798  0.007612 -0.001445)
 31:   1381.46   0.001236    6.25  0.000279  (-0.008121  0.006214 -0.013216)
 32:   1410.36   0.001595    8.06  0.000353  (-0.007595 -0.002198 -0.017040)
 33:   1477.77   0.000901    4.55  0.000190  ( 0.012685 -0.000873  0.005349)
 34:   1489.11   0.000896    4.53  0.000188  ( 0.006491  0.001636 -0.011957)
 35:   1509.83   0.000658    3.33  0.000136  (-0.000620  0.011621  0.000766)
 36:   2991.50   0.005892   29.77  0.000615  ( 0.014552 -0.006177  0.019096)
 37:   3037.23   0.007432   37.56  0.000764  (-0.010860  0.022757  0.011302)
 38:   3060.63   0.009408   47.55  0.000959  (-0.026525  0.003895  0.015509)
 39:   3061.69   0.003028   15.30  0.000309  ( 0.007246 -0.006843 -0.014468)
 40:   3079.30   0.006628   33.50  0.000672  ( 0.006872 -0.023488 -0.008531)
 41:   3122.46   0.003979   20.11  0.000398  (-0.012219 -0.014507  0.006157)
 42:   3131.74   0.005995   30.30  0.000597  ( 0.007093 -0.003915  0.023060)
 43:   3217.37   0.003504   17.71  0.000340  ( 0.009079  0.016026  0.000791)
 44:   3840.69   0.005145   26.00  0.000418  ( 0.007057  0.013568 -0.013572)

* The epsilon (eps) is given for a Dirac delta lineshape.
** The dipole moment derivative (T) already includes vibrational overlap.

The first frequency considered to be a vibration is 6
The total number of vibrations considered is 39


--------------------------
THERMOCHEMISTRY AT 298.15K
--------------------------

Temperature         ...   298.15 K
Pressure            ...     1.00 atm
Total Mass          ...    85.13 AMU
Quasi RRHO          ...     True
Cut-Off Frequency   ...     1.00 cm^-1

Throughout the following assumptions are being made:
  (1) The electronic state is orbitally nondegenerate
      but the spin degeneracy is treated
  (2) There are no thermally accessible electronically excited states
  (3) Hindered rotations indicated by low frequency modes are not
      treated as such but are treated as vibrations and this may
      cause some error
  (4) All equations used are the standard statistical mechanics
      equations for an ideal gas
  (5) All vibrations are strictly harmonic

freq.     127.49  E(vib)   ...       0.43 
freq.     204.81  E(vib)   ...       0.35 
freq.     227.93  E(vib)   ...       0.33 
freq.     318.29  E(vib)   ...       0.25 
freq.     409.25  E(vib)   ...       0.19 
freq.     466.56  E(vib)   ...       0.16 
freq.     598.42  E(vib)   ...       0.10 
freq.     767.40  E(vib)   ...       0.06 
freq.     831.01  E(vib)   ...       0.04 
freq.     850.57  E(vib)   ...       0.04 
freq.     909.95  E(vib)   ...       0.03 
freq.     916.51  E(vib)   ...       0.03 
freq.     934.58  E(vib)   ...       0.03 
freq.     973.29  E(vib)   ...       0.03 
freq.    1040.02  E(vib)   ...       0.02 
freq.    1048.34  E(vib)   ...       0.02 
freq.    1056.18  E(vib)   ...       0.02 
freq.    1147.35  E(vib)   ...       0.01 
freq.    1195.18  E(vib)   ...       0.01 
freq.    1240.62  E(vib)   ...       0.01 
freq.    1251.89  E(vib)   ...       0.01 
freq.    1313.68  E(vib)   ...       0.01 
freq.    1319.65  E(vib)   ...       0.01 
freq.    1350.76  E(vib)   ...       0.01 
freq.    1351.14  E(vib)   ...       0.01 
freq.    1381.46  E(vib)   ...       0.01 
freq.    1410.36  E(vib)   ...       0.00 
freq.    1477.77  E(vib)   ...       0.00 
freq.    1489.11  E(vib)   ...       0.00 
freq.    1509.83  E(vib)   ...       0.00 
freq.    2991.50  E(vib)   ...       0.00 
freq.    3037.23  E(vib)   ...       0.00 
freq.    3060.63  E(vib)   ...       0.00 
freq.    3061.69  E(vib)   ...       0.00 
freq.    3079.30  E(vib)   ...       0.00 
freq.    3122.46  E(vib)   ...       0.00 
freq.    3131.74  E(vib)   ...       0.00 
freq.    3217.37  E(vib)   ...       0.00 
freq.    3840.69  E(vib)   ...       0.00 

------------
INNER ENERGY
------------

The inner energy is: U= E(el) + E(ZPE) + E(vib) + E(rot) + E(trans)
    E(el)   - is the total energy from the electronic structure calculation
              = E(kin-el) + E(nuc-el) + E(el-el) + E(nuc-nuc)
    E(ZPE)  - the the zero temperature vibrational energy from the frequency calculation
    E(vib)  - the the finite temperature correction to E(ZPE) due to population
              of excited vibrational states
    E(rot)  - is the rotational thermal energy
    E(trans)- is the translational thermal energy

Summary of contributions to the inner energy U:
Electronic energy                ...   -270.71077796 Eh
Zero point energy                ...      0.13136376 Eh      82.43 kcal/mol
Thermal vibrational correction   ...      0.00350515 Eh       2.20 kcal/mol
Thermal rotational correction    ...      0.00141627 Eh       0.89 kcal/mol
Thermal translational correction ...      0.00141627 Eh       0.89 kcal/mol
-----------------------------------------------------------------------
Total thermal energy                   -270.57307650 Eh


Summary of corrections to the electronic energy:
(perhaps to be used in another calculation)
Total thermal correction                  0.00633770 Eh       3.98 kcal/mol
Non-thermal (ZPE) correction              0.13136376 Eh      82.43 kcal/mol
-----------------------------------------------------------------------
Total correction                          0.13770146 Eh      86.41 kcal/mol


--------
ENTHALPY
--------

The enthalpy is H = U + kB*T
                kB is Boltzmann's constant
Total thermal energy              ...   -270.57307650 Eh 
Thermal Enthalpy correction       ...      0.00094421 Eh       0.59 kcal/mol
-----------------------------------------------------------------------
Total Enthalpy                    ...   -270.57213229 Eh


Note: Only C1 symmetry has been detected, increase convergence thresholds 
      if your molecule has a higher symmetry. Symmetry factor of 1.0 is   
      used for the rotational entropy correction. 
 

Note: Rotational entropy computed according to Herzberg 
Infrared and Raman Spectra, Chapter V,1, Van Nostrand Reinhold, 1945 
Point Group:  C1, Symmetry Number:   1  
Rotational constants in cm-1:     0.188835     0.116106     0.092031 

Vibrational entropy computed according to the QRRHO of S. Grimme
Chem.Eur.J. 2012 18 9955 using a reference frequency of 100.0 cm-1


-------
ENTROPY
-------

The entropy contributions are T*S = T*(S(el)+S(vib)+S(rot)+S(trans))
     S(el)   - electronic entropy
     S(vib)  - vibrational entropy
     S(rot)  - rotational entropy
     S(trans)- translational entropy
The entropies will be listed as multiplied by the temperature to get
units of energy

Electronic entropy                ...      0.00065446 Eh      0.41 kcal/mol
Vibrational entropy               ...      0.00568809 Eh      3.57 kcal/mol
Rotational entropy                ...      0.01244049 Eh      7.81 kcal/mol
Translational entropy             ...      0.01864317 Eh     11.70 kcal/mol
-----------------------------------------------------------------------
Final entropy term                ...      0.03742621 Eh     23.49 kcal/mol

In case the symmetry of your molecule has not been determined correctly
or in case you have a reason to use a different symmetry number we print 
out the resulting rotational entropy values for sn=1,12:

 non-linear molecules -----------------------------------
|  sn= 1 | S(rot)=       0.01244049 Eh      7.81 kcal/mol|
|  sn= 2 | S(rot)=       0.01178604 Eh      7.40 kcal/mol|
|  sn= 3 | S(rot)=       0.01140321 Eh      7.16 kcal/mol|
|  sn= 4 | S(rot)=       0.01113158 Eh      6.99 kcal/mol|
|  sn= 5 | S(rot)=       0.01092089 Eh      6.85 kcal/mol|
|  sn= 6 | S(rot)=       0.01074875 Eh      6.74 kcal/mol|
|  sn= 7 | S(rot)=       0.01060320 Eh      6.65 kcal/mol|
|  sn= 8 | S(rot)=       0.01047713 Eh      6.57 kcal/mol|
|  sn= 9 | S(rot)=       0.01036592 Eh      6.50 kcal/mol|
|  sn=10 | S(rot)=       0.01026644 Eh      6.44 kcal/mol|
|  sn=11 | S(rot)=       0.01017645 Eh      6.39 kcal/mol|
|  sn=12 | S(rot)=       0.01009429 Eh      6.33 kcal/mol|
 linear molecules ---------------------------------------
|  Dinfh | S(rot)=       0.00757828 Eh      4.76 kcal/mol|
|  Cinfv | S(rot)=       0.00823273 Eh      5.17 kcal/mol|
 --------------------------------------------------------


-------------------
GIBBS FREE ENERGY
-------------------

The Gibbs free energy is G = H - T*S

Total enthalpy                    ...   -270.57213229 Eh 
Total entropy correction          ...     -0.03742621 Eh    -23.49 kcal/mol
-----------------------------------------------------------------------
Final Gibbs free energy         ...   -270.60955850 Eh

For completeness - the Gibbs free energy minus the electronic energy
G-E(el)                           ...      0.10121946 Eh     63.52 kcal/mol



--------------------------------
SUGGESTED CITATIONS FOR THIS RUN
--------------------------------

Below you find a list of papers that are relevant to this ORCA run
We neither can nor want to force you to cite these papers, but we appreciate if you do
You receive ORCA, which is the product of decades of hard work by many enthusiastic individuals, for free
The only thing we kindly ask in return is that you cite our papers,
We deeply appreciate it, if you show your appreciation for ORCA by not just citing the generic ORCA reference.

Please note that relegating all ORCA citations to the supporting information does *not* help us.
SI sections are not indexed - citations you put there will not count into any citation statistics
But we need these citations in order to attract the funding resources that allow us to do what we are doing

Therefore, if you are a happy ORCA user, please consider citing a few of the papers listed below in the main body of your paper

In addition to the list printed below, the program has created the file path_forw.bibtex that contains the list in bibtex format
You can import this file easily into all common literature databanks and citation aid programs


List of essential papers. We consider these as the minimum necessary citations

  1. Neese, F.
     Software update: the ORCA program system, version 6.0
     WIRES Comput. Molec. Sci. 2025 15(1), e70019
     doi.org/10.1002/wcms.7019

List of papers to cite with high priority. The work reported in these papers was absolutely
necessary for this run to complete.
Our perspective: the developers of density functionals and basis sets usually get cited in chemistry papers
Good! But without the algorithms to do something with them, the functionals or basis sets would not do anything.
Hence, in our opinion, the algorithm design and method developments papers are equally worthy of getting cited

  1. Neese, F.
     An improvement of the resolution of the identity approximation for the formation of the Coulomb matrix
     J. Comp. Chem. 2003 24(14), 1740-1747
     doi.org/10.1002/jcc.10318
  2. Neese, F.; Schwabe, T.; Grimme, S.
     Analytic derivatives for perturbatively corrected 'double hybrid' density functionals: Theory, implementation, and applications
     J. Chem. Phys. 2007 126(12), Art. No. 124115
     doi.org/10.1063/1.2712433
  3. Neese, F.; Wennmohs, F.; Hansen, A.; Becker, U.
     Efficient, approximate and parallel Hartree-Fock and hybrid DFT calculations. A 'chain-of-spheres' algorithm for the Hartree-Fock exchange
     Chem. Phys. 2009 356(1-3), 98-109
     doi.org/10.1016/j.chemphys.2008.10.036
  4. Kossmann, S.; Neese, F.
     Efficient Structure Optimization with Second-Order Many-Body Perturbation Theory: The RIJCOSX-MP2 Method
     J. Theo. Comp. Chem. 2010 6 , 2325-2338
     doi.org/10.1021/ct100199k
  5. Caldeweyher, E.; Bannwarth, C.; Grimme, S.
     Extension of the D3 dispersion coefficient model
     J. Chem. Phys. 2017 147 , 034112
     doi.org/10.1063/1.4993215
  6. Caldeweyher, E.; Ehlert, S.; Hansen, A.; Neugebauer, H.; Spicher, S.; Bannwarth, C.; Grimme, S.
     A generally applicable atomic-charge dependent London dispersion correction
     J. Chem. Phys. 2019 150 , 154122
     doi.org/10.1063/1.5090222
  7. Caldeweyher, E.; Mewes, J.; Ehlert, S.; Grimme, S.
     Extension and evaluation of the D4 London-dispersion model for periodic systems
     Phys. Chem. Chem. Phys. 2020 22(16), 8499-8512
     doi.org/10.1039/D0CP00502A
  8. Helmich-Paris, B.; de Souza, B.; Neese, F.; Izsák, R.
     An improved chain of spheres for exchange algorithm
     J. Chem. Phys. 2021 155(10), 104109
     doi.org/10.1063/5.0058766
  9. Neese, F.
     The SHARK Integral Generation and Digestion System
     J. Comp. Chem. 2022 44(3), 381
     doi.org/10.1002/jcc.26942
 10. Wittmann, L.; Gordiy, I.; Friede, M.; Helmich-Paris, B.; Grimme, S.; Hansen, A.; Bursch, M.
     Extension of the D3 and D4 London Dispersion Corrections to the full Actinides Series
     Phys. Chem. Chem. Phys. 2024 26(32), 21379-21394
     doi.org/10.1039/D4CP01514B

List of suggested additional citations. These are papers that are important in the 'surrounding' of 
of this run, or papers that preceded the highly important papers. If you like your results we are grateful for a citation.

  1. Izsak, R.; Neese, F.
     An overlap fitted chain of spheres exchange method
     J. Chem. Phys. 2011 135 , 144105
     doi.org/10.1063/1.3646921
  2. Izsak, R.; Hansen, A.; Neese, F.
     The resolution of identity and chain of spheres approximations for the LPNO-CCSD singles Fock term
     Molec. Phys. 2012 110 , 2413-2417
     doi.org/10.1080/00268976.2012.687466
  3. Neese, F.
     The ORCA program system
     WIRES Comput. Molec. Sci. 2012 2(1), 73-78
     doi.org/10.1002/wcms.81
  4. Izsak, R.; Neese, F.; Klopper, W.
     Robust fitting techniques in the chain of spheres approximation to the Fock exchange: The role of the complementary space
     J. Chem. Phys. 2013 139 , 
     doi.org/10.1063/1.4819264
  5. Neese, F.
     Software update: the ORCA program system, version 4.0
     WIRES Comput. Molec. Sci. 2018 8(1), 1-6
     doi.org/10.1002/wcms.1327
  6. Neese, F.; Wennmohs, F.; Becker, U.; Riplinger, C.
     The ORCA quantum chemistry program package
     J. Chem. Phys. 2020 152(22), 224108
     doi.org/10.1063/5.0004608
  7. Neese, F.
     Software update: The ORCA program system—Version 5.0
     WIRES Comput. Molec. Sci. 2022 12(1), e1606
     doi.org/10.1002/wcms.1606

List of optional additional citations

  1. Neese, F.
     Approximate second-order SCF convergence for spin unrestricted wavefunctions
     Chem. Phys. Lett. 2000 325(1-3), 93-98
     doi.org/10.1016/s0009-2614(00)00662-x

Timings for individual modules:

Sum of individual times          ...     4694.887 sec (=  78.248 min)
Startup calculation              ...       66.269 sec (=   1.104 min)   1.4 %
SCF iterations                   ...      631.781 sec (=  10.530 min)  13.5 %
Property calculations            ...        1.973 sec (=   0.033 min)   0.0 %
MP2 module                       ...      886.548 sec (=  14.776 min)  18.9 %
Geometry relaxation              ...        0.157 sec (=   0.003 min)   0.0 %
Numerical frequency calculation  ...     3108.160 sec (=  51.803 min)  66.2 %
                             ****ORCA TERMINATED NORMALLY****
TOTAL RUN TIME: 0 days 1 hours 18 minutes 19 seconds 599 msec
