
 Working directory              : /tmp/copan/molpro.e3apDOOb8M/
 Global scratch directory       : /tmp/copan/molpro.e3apDOOb8M/
 Wavefunction directory         : /home/copan/wfu/
 Main file repository           : /tmp/copan/molpro.e3apDOOb8M/

 id        : anlgov

 Nodes     nprocs
 csed-0037    7
 Distribution of processes:   nprocs(total)=    8   nprocs(compute)=    7   nprocs(helper)=    1
 GA implementation: MPI file
 GA implementation (serial work in mppx): MPI file

 Using customized tuning parameters: mindgm=12; mindgv=32; mindgc=1; mindgr=1; noblas=0; minvec=7
 default implementation of scratch files=sf  


 Variables initialized (1042), CPU time= 0.01 sec
 memory,200,m
 geometry={angs
   C          1.89357597712530      1.41719389376321     -0.01966044255097
   C          0.66399582094548      2.29565798641634      0.29801319521562
   C         -0.56256048634398      1.41545265626519     -0.02653908806061
   C         -0.00129153669515      0.01710374751016      0.06148227614419
   C          1.33384895571612      0.01806292931919      0.06521597211208
   H          2.28019494057264      1.60993002808968     -1.02721812814441
   H          2.71932554077967      1.58997810842617      0.67430893584414
   H          0.66488706675314      3.24023448728403     -0.24700902684919
   H          0.66085100446065      2.52829835086336      1.36516380008312
   H         -1.39232126027703      1.58697740774694      0.66294744410083
   H         -0.94400125135853      1.60760627728290     -1.03616915245160
   H         -0.62086817408754     -0.87124708870500      0.07211800911504
   H          1.95452974536150     -0.86946432674751      0.07954018907553
   O          40.00000000000000      0.00000000000000      0.00055982453922
   H          40.00000000000000      0.00000000000000      0.97055617546078
 }
 basis=cc-pvdz
 {multi;closed,22;occ,24;wf,47,1,2;state,2;orbprint,3}
 rs2,shift=0.2,mix=2
 Commands initialized (847), CPU time= 0.01 sec, 718 directives.
 Default parameters read. Elapsed time= 0.45 sec

 Checking input...
 Passed
1


                                         ***  PROGRAM SYSTEM MOLPRO  ***
                                       Copyright, TTI GmbH Stuttgart, 2015
                                    Version 2024.1 linked Thu Jul 11 13:49:31 2024


 **********************************************************************************************************************************
 LABEL *                                                                                                                                                                 
  (4 PROC) 64 bit mpp version                                                            DATE: 05-Sep-25          TIME: 09:28:33  
 **********************************************************************************************************************************

 SHA1:             675817fde4514a4a933b69e420913a90cee4ef91
 **********************************************************************************************************************************

 Memory per process:       200 MW
 Total memory per node:   1400 MW

 GA preallocation disabled
 GA check disabled

 Variable memory set to 200.0 MW


 Geometry recognized as XYZ

 SETTING BASIS          =    CC-PVDZ


 Recomputing integrals since basis changed


 Using spherical harmonics

 Library entry C      S cc-pVDZ              selected for orbital group  1
 Library entry C      P cc-pVDZ              selected for orbital group  1
 Library entry C      D cc-pVDZ              selected for orbital group  1
 Library entry H      S cc-pVDZ              selected for orbital group  2
 Library entry H      P cc-pVDZ              selected for orbital group  2
 Library entry O      S cc-pVDZ              selected for orbital group  3
 Library entry O      P cc-pVDZ              selected for orbital group  3
 Library entry O      D cc-pVDZ              selected for orbital group  3


 PROGRAM * SEWARD (Integral evaluation for generally contracted gaussian basis sets)     Author: Roland Lindh, 1990

 Geometry written to block  1 of record 700


 Point group  C1  



 ATOMIC COORDINATES

 NR  ATOM    CHARGE       X              Y              Z

   1  C       6.00    3.578339993    2.678108325   -0.037152852
   2  C       6.00    1.254770249    4.338164870    0.563163320
   3  C       6.00   -1.063085248    2.674817863   -0.050151608
   4  C       6.00   -0.002440651    0.032321398    0.116184663
   5  C       6.00    2.520609218    0.034133989    0.123240326
   6  H       1.00    4.308943948    3.042326833   -1.941160932
   7  H       1.00    5.138780516    3.004623169    1.274259212
   8  H       1.00    1.256454460    6.123155761   -0.466779411
   9  H       1.00    1.248827408    4.777791444    2.579785697
  10  H       1.00   -2.631105859    2.998952667    1.252789104
  11  H       1.00   -1.783903826    3.037935580   -1.958075917
  12  H       1.00   -1.173270809   -1.646418385    0.136283286
  13  H       1.00    3.693525921   -1.643049453    0.150309173
  14  O       8.00   75.589044985    0.000000000    0.001057915
  15  H       1.00   75.589044985    0.000000000    1.834085360

 Bond lengths in Bohr (Angstrom)

 1-2  2.918071897  1-5  2.852213290  1-6  2.071638007  1-7  2.064313002  2-3  2.918104278
     ( 1.544177147)     ( 1.509326274)     ( 1.096263623)     ( 1.092387397)     ( 1.544194283)

  2- 8  2.060819581   2- 9  2.063994344   3- 4  2.852266166   3-10  2.064317444   3-11  2.071619914
       ( 1.090538758)       ( 1.092218770)       ( 1.509354254)       ( 1.092389747)       ( 1.096254048)

  4- 5  2.523060385   4-12  2.046805920   5-13  2.046804977  14-15  1.833027445
       ( 1.335146058)       ( 1.083123048)       ( 1.083122549)       ( 0.969996351)

 Bond angles

  1-2-3  105.36505374   1-2-8  112.90969881   1-2-9  108.93326173   1-5-4  111.79906994

  1- 5-13  123.21769923   2- 1- 5  102.73794769   2- 1- 6  111.70820037   2- 1- 7  112.41029265

  2- 3- 4  102.73616718   2- 3-10  112.40675053   2- 3-11  111.71761597   3- 2- 8  112.91256015

  3- 2- 9  108.93381703   3- 4- 5  111.79928655   3- 4-12  123.21030994   4- 3-10  113.02424436

  4- 3-11  110.21162103   4- 5-13  124.92429088   5- 1- 6  110.20903745   5- 1- 7  113.03077434

  5- 4-12  124.93084453   6- 1- 7  106.82666590   8- 2- 9  107.68692768  10- 3-11  106.82681327

 NUCLEAR CHARGE:                   47
 NUMBER OF PRIMITIVE AOS:         225
 NUMBER OF SYMMETRY AOS:          219
 NUMBER OF CONTRACTIONS:          129   (  129A   )
 NUMBER OF INNER CORE ORBITALS:     0   (    0A   )
 NUMBER OF OUTER CORE ORBITALS:     6   (    6A   )
 NUMBER OF VALENCE ORBITALS:       33   (   33A   )


 NUCLEAR REPULSION ENERGY  180.52745894

 EXTRA SYMMETRY OF AOS IN SYMMETRY 1:   1 1 1 1 1 1 1 1 1 1   1 1 1 1 1 1 1 1 1 1   1 1 1 1 1 1 1 1 1 1   1 1 1 1 1 1 1 1 1 1
                                        1 1 1 1 1 1 1 1 1 1   1 1 1 1 1 1 1 1 1 1   1 1 1 1 1 1 1 1 1 1   1 1 1 1 1 1 1 1 1 1
                                        1 1 1 1 1 1 1 1 1 1   1 1 1 1 1 1 1 1 1 1   1 1 1 1 1 1 1 1 1 1   2 2 2 2 2 2 2 2 2 2
                                        2 2 2 2 2 2 2 2 2

 Eigenvalues of metric

         1 0.134E-02 0.244E-02 0.474E-02 0.713E-02 0.964E-02 0.140E-01 0.170E-01 0.184E-01


 Contracted 2-electron integrals neglected if value below      1.0D-11
 AO integral compression algorithm  1   Integral accuracy      1.0D-11

     90.440 MB (compressed) written to integral file ( 52.1%)

     Node minimum: 12.059 MB, node maximum: 14.156 MB


 NUMBER OF SORTED TWO-ELECTRON INTEGRALS:    5019021.     BUFFER LENGTH:  32768
 NUMBER OF SEGMENTS:   1  SEGMENT LENGTH:    5019021      RECORD LENGTH: 524288

 Memory used in sort:       5.58 MW

 SORT1 READ    21795378. AND WROTE     2806181. INTEGRALS IN      9 RECORDS. CPU TIME:     0.25 SEC, REAL TIME:     0.27 SEC
 SORT2 READ    19332003. AND WROTE    35158305. INTEGRALS IN    378 RECORDS. CPU TIME:     0.05 SEC, REAL TIME:     0.07 SEC

 Node minimum:     5019021.  Node maximum:     5026209. integrals

 OPERATOR DM      FOR CENTER  0  COORDINATES:    0.000000    0.000000    0.000000


 **********************************************************************************************************************************
 DATASETS  * FILE   NREC   LENGTH (MB)   RECORD NAMES
              1      18       29.44       500      610      700      900      950      970     1000      129      960     1100   
                                          VAR    BASINP    GEOM    SYMINP    ZMAT    AOBASIS   BASIS     P2S    ABASIS      S 
                                         1400     1410     1200     1210     1080     1600     1650     1700   
                                           T        V       H0       H01     AOSYM     SMH    MOLCAS    OPER   

 PROGRAMS   *        TOTAL       INT
 CPU TIMES  *         0.85      0.73
 REAL TIME  *         2.50 SEC
 DISK USED  *        30.02 MB (local),      518.17 MB (total)
 GA USED    *         0.00 MB       (max)       0.00 MB       (current)
 **********************************************************************************************************************************

 PROGRAM * MULTI (Direct Multiconfiguration SCF)       Authors: P.J. Knowles, H.-J. Werner (1984)
                                                                D.A. Kreplin, P.J. Knowles, H.-J. Werner (2019)

 Inconsistent input for SPIN (MS2):

 NELEC= 47  MS2=2  CHARGE= 0
 ? Error
 ? Wrong spin
 ? The problem occurs in get_wf

 GLOBAL ERROR fehler on processor   0                                         
