
 Working directory              : /tmp/copan/molpro.uHSLVIbxjw/
 Global scratch directory       : /tmp/copan/molpro.uHSLVIbxjw/
 Wavefunction directory         : /home/copan/wfu/
 Main file repository           : /tmp/copan/molpro.uHSLVIbxjw/

 id        : anlgov

 Nodes     nprocs
 csed-0037    7
 Distribution of processes:   nprocs(total)=    8   nprocs(compute)=    7   nprocs(helper)=    1
 GA implementation: MPI file
 GA implementation (serial work in mppx): MPI file

 Using customized tuning parameters: mindgm=12; mindgv=32; mindgc=1; mindgr=1; noblas=0; minvec=7
 default implementation of scratch files=sf  


 Variables initialized (1042), CPU time= 0.01 sec
 memory,200,m
 geometry={angs
   C          1.89357597712530      1.41719389376321     -0.01966044255097
   C          0.66399582094548      2.29565798641634      0.29801319521562
   C         -0.56256048634398      1.41545265626519     -0.02653908806061
   C         -0.00129153669515      0.01710374751016      0.06148227614419
   C          1.33384895571612      0.01806292931919      0.06521597211208
   H          2.28019494057264      1.60993002808968     -1.02721812814441
   H          2.71932554077967      1.58997810842617      0.67430893584414
   H          0.66488706675314      3.24023448728403     -0.24700902684919
   H          0.66085100446065      2.52829835086336      1.36516380008312
   H         -1.39232126027703      1.58697740774694      0.66294744410083
   H         -0.94400125135853      1.60760627728290     -1.03616915245160
   H         -0.62086817408754     -0.87124708870500      0.07211800911504
   H          1.95452974536150     -0.86946432674751      0.07954018907553
   O          40.00000000000000      0.00000000000000      0.00055982453922
   H          40.00000000000000      0.00000000000000      0.97055617546078
 }
 basis=cc-pvdz
 {multi;closed,22;occ,24;wf,47,1,1;state,2;orbprint,3}
 rs2,shift=0.2,mix=2
 Commands initialized (847), CPU time= 0.00 sec, 718 directives.
 Default parameters read. Elapsed time= 0.08 sec

 Checking input...
 Passed
1


                                         ***  PROGRAM SYSTEM MOLPRO  ***
                                       Copyright, TTI GmbH Stuttgart, 2015
                                    Version 2024.1 linked Thu Jul 11 13:49:31 2024


 **********************************************************************************************************************************
 LABEL *                                                                                                                                                                 
  (4 PROC) 64 bit mpp version                                                            DATE: 05-Sep-25          TIME: 09:29:22  
 **********************************************************************************************************************************

 SHA1:             675817fde4514a4a933b69e420913a90cee4ef91
 **********************************************************************************************************************************

 Memory per process:       200 MW
 Total memory per node:   1400 MW

 GA preallocation disabled
 GA check disabled

 Variable memory set to 200.0 MW


 Geometry recognized as XYZ

 SETTING BASIS          =    CC-PVDZ


 Recomputing integrals since basis changed


 Using spherical harmonics

 Library entry C      S cc-pVDZ              selected for orbital group  1
 Library entry C      P cc-pVDZ              selected for orbital group  1
 Library entry C      D cc-pVDZ              selected for orbital group  1
 Library entry H      S cc-pVDZ              selected for orbital group  2
 Library entry H      P cc-pVDZ              selected for orbital group  2
 Library entry O      S cc-pVDZ              selected for orbital group  3
 Library entry O      P cc-pVDZ              selected for orbital group  3
 Library entry O      D cc-pVDZ              selected for orbital group  3


 PROGRAM * SEWARD (Integral evaluation for generally contracted gaussian basis sets)     Author: Roland Lindh, 1990

 Geometry written to block  1 of record 700


 Point group  C1  



 ATOMIC COORDINATES

 NR  ATOM    CHARGE       X              Y              Z

   1  C       6.00    3.578339993    2.678108325   -0.037152852
   2  C       6.00    1.254770249    4.338164870    0.563163320
   3  C       6.00   -1.063085248    2.674817863   -0.050151608
   4  C       6.00   -0.002440651    0.032321398    0.116184663
   5  C       6.00    2.520609218    0.034133989    0.123240326
   6  H       1.00    4.308943948    3.042326833   -1.941160932
   7  H       1.00    5.138780516    3.004623169    1.274259212
   8  H       1.00    1.256454460    6.123155761   -0.466779411
   9  H       1.00    1.248827408    4.777791444    2.579785697
  10  H       1.00   -2.631105859    2.998952667    1.252789104
  11  H       1.00   -1.783903826    3.037935580   -1.958075917
  12  H       1.00   -1.173270809   -1.646418385    0.136283286
  13  H       1.00    3.693525921   -1.643049453    0.150309173
  14  O       8.00   75.589044985    0.000000000    0.001057915
  15  H       1.00   75.589044985    0.000000000    1.834085360

 Bond lengths in Bohr (Angstrom)

 1-2  2.918071897  1-5  2.852213290  1-6  2.071638007  1-7  2.064313002  2-3  2.918104278
     ( 1.544177147)     ( 1.509326274)     ( 1.096263623)     ( 1.092387397)     ( 1.544194283)

  2- 8  2.060819581   2- 9  2.063994344   3- 4  2.852266166   3-10  2.064317444   3-11  2.071619914
       ( 1.090538758)       ( 1.092218770)       ( 1.509354254)       ( 1.092389747)       ( 1.096254048)

  4- 5  2.523060385   4-12  2.046805920   5-13  2.046804977  14-15  1.833027445
       ( 1.335146058)       ( 1.083123048)       ( 1.083122549)       ( 0.969996351)

 Bond angles

  1-2-3  105.36505374   1-2-8  112.90969881   1-2-9  108.93326173   1-5-4  111.79906994

  1- 5-13  123.21769923   2- 1- 5  102.73794769   2- 1- 6  111.70820037   2- 1- 7  112.41029265

  2- 3- 4  102.73616718   2- 3-10  112.40675053   2- 3-11  111.71761597   3- 2- 8  112.91256015

  3- 2- 9  108.93381703   3- 4- 5  111.79928655   3- 4-12  123.21030994   4- 3-10  113.02424436

  4- 3-11  110.21162103   4- 5-13  124.92429088   5- 1- 6  110.20903745   5- 1- 7  113.03077434

  5- 4-12  124.93084453   6- 1- 7  106.82666590   8- 2- 9  107.68692768  10- 3-11  106.82681327

 NUCLEAR CHARGE:                   47
 NUMBER OF PRIMITIVE AOS:         225
 NUMBER OF SYMMETRY AOS:          219
 NUMBER OF CONTRACTIONS:          129   (  129A   )
 NUMBER OF INNER CORE ORBITALS:     0   (    0A   )
 NUMBER OF OUTER CORE ORBITALS:     6   (    6A   )
 NUMBER OF VALENCE ORBITALS:       33   (   33A   )


 NUCLEAR REPULSION ENERGY  180.52745894

 EXTRA SYMMETRY OF AOS IN SYMMETRY 1:   1 1 1 1 1 1 1 1 1 1   1 1 1 1 1 1 1 1 1 1   1 1 1 1 1 1 1 1 1 1   1 1 1 1 1 1 1 1 1 1
                                        1 1 1 1 1 1 1 1 1 1   1 1 1 1 1 1 1 1 1 1   1 1 1 1 1 1 1 1 1 1   1 1 1 1 1 1 1 1 1 1
                                        1 1 1 1 1 1 1 1 1 1   1 1 1 1 1 1 1 1 1 1   1 1 1 1 1 1 1 1 1 1   2 2 2 2 2 2 2 2 2 2
                                        2 2 2 2 2 2 2 2 2

 Eigenvalues of metric

         1 0.134E-02 0.244E-02 0.474E-02 0.713E-02 0.964E-02 0.140E-01 0.170E-01 0.184E-01


 Contracted 2-electron integrals neglected if value below      1.0D-11
 AO integral compression algorithm  1   Integral accuracy      1.0D-11

     90.702 MB (compressed) written to integral file ( 52.0%)

     Node minimum: 12.059 MB, node maximum: 13.631 MB


 NUMBER OF SORTED TWO-ELECTRON INTEGRALS:    5019021.     BUFFER LENGTH:  32768
 NUMBER OF SEGMENTS:   1  SEGMENT LENGTH:    5019021      RECORD LENGTH: 524288

 Memory used in sort:       5.58 MW

 SORT1 READ    21795378. AND WROTE     2806181. INTEGRALS IN      9 RECORDS. CPU TIME:     0.25 SEC, REAL TIME:     0.27 SEC
 SORT2 READ    19332003. AND WROTE    35158305. INTEGRALS IN    364 RECORDS. CPU TIME:     0.04 SEC, REAL TIME:     0.07 SEC

 Node minimum:     5019021.  Node maximum:     5026209. integrals

 OPERATOR DM      FOR CENTER  0  COORDINATES:    0.000000    0.000000    0.000000


 **********************************************************************************************************************************
 DATASETS  * FILE   NREC   LENGTH (MB)   RECORD NAMES
              1      18       29.44       500      610      700      900      950      970     1000      129      960     1100   
                                          VAR    BASINP    GEOM    SYMINP    ZMAT    AOBASIS   BASIS     P2S    ABASIS      S 
                                         1400     1410     1200     1210     1080     1600     1650     1700   
                                           T        V       H0       H01     AOSYM     SMH    MOLCAS    OPER   

 PROGRAMS   *        TOTAL       INT
 CPU TIMES  *         0.82      0.71
 REAL TIME  *         1.01 SEC
 DISK USED  *        30.02 MB (local),      518.17 MB (total)
 GA USED    *         0.00 MB       (max)       0.00 MB       (current)
 **********************************************************************************************************************************

 PROGRAM * MULTI (Direct Multiconfiguration SCF)       Authors: P.J. Knowles, H.-J. Werner (1984)
                                                                D.A. Kreplin, P.J. Knowles, H.-J. Werner (2019)

 Number of closed-shell orbitals:  22 (   22)
 Number of active  orbitals:        2 (    2)
 Number of external orbitals:     105 (  105)

 State symmetry 1

 Number of active electrons:   3    Spin symmetry=Doublet   Space symmetry=1
 Number of states:             2
 Number of CSFs:               2   (2 determinants, 2 intermediate states)

 Orbital guess generated from atomic densities. Full valence occupancy:   39

 EXTRA SYMMETRY OF MOS IN SYMMETRY 1:   2 1 1 1 1 1 1 2 1 1   1 1 1 1 2 1 1 1 1 1   1 2 2 1 1 1 1 2 1 1   1 1 1 1 1 1 1 1 1 1
                                        1 1 1 1 1 1 1 1 1 1   1 1 2 1 1 1 1 1 1 1   1 1 1 1 2 1 1 2 2 1   1 1 1 1 1 1 2 2 1 1
                                        2 1 1 1 1 1 1 1 1 1   1 1 1 1 1 1 1 1 1 1   1 1 1 1 1 1 1 1 1 1   2 1 1 1 1 1 1 1 1 1
                                        1 1 2 2 1 2 2 1 2

 Wavefunction dump at record             2140.2

 Convergence thresholds  0.10E-04 (gradient)  0.10E-05 (energy)

 Weight factors for state symmetry  1:    0.50000   0.50000
 
 Number of orbital rotations:  2564  ( 44 closed/active, 2310 closed/virtual, 0 active/active, 210 active/virtual )
 Total number of variables:    2568
 
 Second-order MCSCF: L-BFGS accelerated
 
 ITER  MIC  NCI  NEG     ENERGY(VAR)    ENERGY(PROJ) ENERGY CHANGE       GRAD(0)  GRAD(ORB)   GRAD(CI)      STEP      TIME
   1   10    4    0   -269.07800801    -269.17563946   -0.09763145    0.53936282 0.00286801 0.00000000  0.23E+00      1.60
   2    9    5    0   -269.17766172    -269.17796459   -0.00030287    0.03100942 0.00000681 0.00000000  0.11E-01      3.64
   3   14    6    0   -269.17796532    -269.17796533   -0.00000001    0.00011604 0.00000000 0.00000000  0.12E-02      5.58
 ? Warning
 ? Non zero Pspace value in the residuum
   4   34   19    0   -269.17796533    -269.17796533   -0.00000000    0.00000371 0.00000000 0.00000000  0.23E-02      7.78
 ? Warning
 ? Non zero Pspace value in the residuum
   5   35   16    0   -269.17796533    -269.17796533   -0.00000000    0.00001080 0.00000000 0.00000000  0.21E-02      9.98

 CONVERGENCE REACHED!  Final gradient:    0.00000893 ( 0.89E-05)
                       Final energy:   -269.17796533
 
 Results for state 1.1
 =====================
 !MCSCF STATE 1.1 Energy                      -269.344558577373
 Nuclear energy                                180.52745894
 Kinetic energy                                268.60657922
 One electron energy                          -722.64726745
 Two electron energy                           272.77524993
 Virial ratio                                    2.00274744
 
 !MCSCF STATE 1.1 Dipole moment                  0.00471806     0.38119827     0.53777499
 Dipole moment /Debye                            0.01199212     0.96890936     1.36688768
 
 Results for state 2.1
 =====================
 !MCSCF STATE 2.1 Energy                      -269.011372076207
 Nuclear energy                                180.52745894
 Kinetic energy                                269.68853914
 One electron energy                          -717.97687421
 Two electron energy                           268.43804320
 Virial ratio                                    1.99748908
 
 !MCSCF STATE 2.1 Dipole moment                -74.32496759     0.79016181     0.57796941
 Dipole moment /Debye                         -188.91522425     2.00839099     1.46905171
 
 State-averaged charge density matrix saved on record 2140.2 (density set 1)
 
 Expectation values: (only non-zero values are shown)
 
 !MCSCF expec                       <1.1|DMX|1.1>     0.004718064291 au =     0.011992123273 Debye
 !MCSCF expec                       <2.1|DMX|2.1>   -74.324967593752 au =  -188.915224251683 Debye
 
 !MCSCF expec                       <1.1|DMY|1.1>     0.381198272060 au =     0.968909363597 Debye
 !MCSCF expec                       <2.1|DMY|2.1>     0.790161810431 au =     2.008390994916 Debye
 
 !MCSCF expec                       <1.1|DMZ|1.1>     0.537774989726 au =     1.366887683509 Debye
 !MCSCF expec                       <2.1|DMZ|2.1>     0.577969408871 au =     1.469051706611 Debye
 
 EXTRA SYMMETRY OF MOS IN SYMMETRY 1:   2 1 1 1 1 1 1 1 1 2   1 1 1 1 1 1 1 1 1 1   2 2 2 1 1 1 1 1 1 1   1 1 1 1 1 1 2 1 1 1
                                        1 1 1 1 1 1 1 1 1 1   1 1 1 1 1 1 1 1 1 1   1 1 2 1 1 1 1 1 1 2   1 1 2 2 1 1 1 1 1 1
                                        1 2 2 1 1 1 1 1 1 1   1 2 1 1 1 1 1 1 1 1   1 1 1 1 1 1 1 1 1 1   1 1 1 1 2 1 1 1 1 1
                                        1 1 1 2 2 1 2 2 2
 
  NATURAL ORBITALS (STATE AVERAGED)
  =================================

  Orbital  Occupation    Energy    Cen Mu Typ  Coefficients
    1.1     2.00000   -20.35433    14  1  s    1.00019
    2.1     2.00000   -11.37094     4  1  s    0.72891    5  1  s    0.68614
    3.1     2.00000   -11.36932     4  1  s    0.68681    5  1  s   -0.72954
    4.1     2.00000   -11.32658     3  1  s    1.00175
    5.1     2.00000   -11.32636     1  1  s    1.00174
    6.1     2.00000   -11.31241     2  1  s    1.00162
    7.1     2.00000    -1.24898     1  2  s    0.33331    2  2  s    0.28981    3  2  s    0.33368    4  2  s    0.45668
                                    5  2  s    0.45647
    8.1     2.00000    -1.07627     2  2  s    0.50826    4  2  s   -0.39924    5  2  s   -0.40012
    9.1     2.00000    -1.06352     1  2  s   -0.50457    3  2  s    0.50369    4  2  s    0.26605    5  2  s   -0.26485
   10.1     2.00000    -1.06115    14  2  s    0.88070   15  1  s    0.36381
   11.1     2.00000    -0.88708     1  2  s   -0.32717    2  2  s    0.46706    3  2  s   -0.32693    8  1  s    0.27767
                                    9  1  s    0.29008
   12.1     2.00000    -0.83866     4  2  s   -0.40476    5  2  s    0.40512   12  1  s   -0.38990   13  1  s    0.38945
   13.1     2.00000    -0.78971     4  1  px   0.26210    4  1  py   0.33588    5  1  px  -0.26279    5  1  py   0.33533
                                   12  1  s   -0.37121   13  1  s   -0.37139
   14.1     2.00000    -0.72977     1  1  pz   0.33106    2  1  pz   0.36830    3  1  pz   0.33178    6  1  s   -0.27497
                                    8  1  s   -0.27944    9  1  s    0.28915   11  1  s   -0.27591
   15.1     2.00000    -0.65128     1  1  px  -0.27604    3  1  px   0.27773    4  1  px  -0.50954    5  1  px   0.50983
                                    7  1  s   -0.28844   10  1  s   -0.29255
   16.1     2.00000    -0.64697     1  1  pz  -0.45348    3  1  pz   0.45270    6  1  s    0.40657    7  1  s   -0.32545
                                   10  1  s    0.32230   11  1  s   -0.40799
   17.1     2.00000    -0.60328     1  1  px   0.28000    1  1  py   0.31584    3  1  px   0.27892    3  1  py  -0.31628
                                    4  1  py   0.42709    5  1  py  -0.42647   12  1  s   -0.32366   13  1  s    0.32299
   18.1     2.00000    -0.58975     1  1  py  -0.32207    2  1  py   0.54713    3  1  py  -0.32213    4  1  py   0.28318
                                    5  1  py   0.28443    8  1  s    0.41345
   19.1     2.00000    -0.57344     1  1  pz  -0.26063    2  1  pz   0.50716    3  1  pz  -0.25969    6  1  s    0.28322
                                    8  1  s   -0.39052    9  1  s    0.52605   11  1  s    0.28189
   20.1     2.00000    -0.57008     1  1  px  -0.40061    1  1  py   0.26224    2  1  px   0.56419    3  1  px  -0.39935
                                    3  1  py  -0.26183    7  1  s   -0.26835   10  1  s    0.26728
   21.1     2.00000    -0.41030    14  2  s   -0.26654   14  1  pz   0.71764   15  1  s    0.65855
   22.1     2.00000    -0.28253    14  1  px   0.63545   14  1  py  -0.64661
   23.1     1.50000    -0.13720    14  1  px   0.62671   14  1  py   0.61590
   24.1     1.50000    -0.38577     4  1  pz   0.55203    5  1  pz   0.55183
   25.1     0.00000     0.06989     4  1  pz   0.54375    4  2  pz   0.48075    5  1  pz  -0.54402    5  2  pz  -0.48115
   26.1     0.00000     0.10088     1  3  s   -0.85169    2  3  s   -0.80113    3  3  s   -0.86512    4  3  s   -0.46519
                                    5  3  s   -0.46255    6  2  s    0.62169    7  2  s    0.58792    8  2  s    0.47158
                                    9  2  s    0.54135   10  2  s    0.59725   11  2  s    0.62761   12  2  s    0.69824
                                   13  2  s    0.68946
   27.1     0.00000     0.13873     1  3  s    0.38111    1  2  pz  -0.28566    2  3  s    0.82320    2  2  py   0.35006
                                    3  3  s    0.37527    3  2  pz  -0.29012    4  3  s   -0.89383    4  2  px   0.38321
                                    4  2  py   0.36560    5  3  s   -0.88658    5  2  px  -0.37671    5  2  py   0.35160
                                    6  2  s   -0.68707    8  2  s   -0.78021   11  2  s   -0.69072   12  2  s    1.24757
                                   13  2  s    1.22376
 
 Natural orbital dump (state averaged) at molpro section 2140.2 (Orbital set 2)


 **********************************************************************************************************************************
 DATASETS  * FILE   NREC   LENGTH (MB)   RECORD NAMES
              1      19       86.98       500      610      700      900      950      970     1000      129      960     1100   
                                          VAR    BASINP    GEOM    SYMINP    ZMAT    AOBASIS   BASIS     P2S    ABASIS      S 
                                         1400     1410     1200     1210     1080     1600     1650     1700     1380   
                                           T        V       H0       H01     AOSYM     SMH    MOLCAS    OPER     JKOP   

              2       4        1.08       700     1000      520     2140   
                                         GEOM     BASIS   MCVARS    MCSCF   

 PROGRAMS   *        TOTAL     MULTI       INT
 CPU TIMES  *         7.48      6.66      0.71
 REAL TIME  *        12.34 SEC
 DISK USED  *        88.14 MB (local),      925.06 MB (total)
 SF USED    *       189.78 MB
 GA USED    *         0.00 MB       (max)       0.00 MB       (current)
 **********************************************************************************************************************************


 PROGRAM * RS2 (Multireference RS Perturbation Theory)     Authors: H.-J. Werner (1993), P. Celani (1998)


 Level shift= 0.20

 Convergence thresholds:  THRVAR = 1.00D-08  THRDEN = 1.00D-06

 Number of optimized states: 1  Roots:    1
 Number of reference states: 1  Roots:    1

 Reference symmetry:                   1   Doublet 
 Number of electrons:                 47
 Maximum number of shells:             3
 Maximum number of spin couplings:     5

 Reference space:        2 conf        2 CSFs
 N elec internal:       18 conf       18 CSFs
 N-1 el internal:      171 conf      324 CSFs
 N-2 el internal:      322 conf     1412 CSFs

 Number of electrons in valence space:                     35
 Maximum number of open shell orbitals in reference space:  1
 Maximum number of open shell orbitals in internal spaces:  5


 Number of core orbitals:           6 (   6 )
 Number of closed-shell orbitals:  16 (  16 )
 Number of active  orbitals:        2 (   2 )
 Number of external orbitals:     105 ( 105 )
 Initialize record     7000.1

 Wavefunction will be saved to record  7100.1

 Molecular orbitals read from record     2140.2  Type=MCSCF/NATURAL (state averaged)

 Integral transformation finished. Total CPU:   0.44 sec, npass=  1  Memory used:   5.00 MW


 Number of p-space configurations:   2

 Reference wavefunction optimized for reference space (refopt=1)

 State     Reference Energy 
     1      -269.34455858
     2      -269.01137208

 Number of blocks in overlap matrix:     2   Smallest eigenvalue:  0.10D+01
 Number of N-2 electron functions:     323
 Number of N-1 electron functions:     324

 Number of internal configurations:                   18
 Number of singly external configurations:         34020
 Number of doubly external configurations:       1781430
 Total number of contracted configurations:      1815468
 Total number of uncontracted configurations:    7804248

 Weight factors for SA-density in H0:    1.000000

 FIMAX=  0.37D-01  FXMAX=  0.60D-01  DIAG=  F  F  NOREF=1  NOINT=0  IHPPD=2

 Nuclear energy:                     180.52745894
 Core energy:                       -302.56817389
 Zeroth-order valence energy:        -23.33494145
 Zeroth-order total energy:         -145.37565639
 First-order energy:                -123.96890218

 Using uncontracted singles

 Diagonal Coupling coefficients finished.               Storage:    228027 words, CPU-Time:      0.01 seconds.
 Energy denominators for pairs finished in 0 passes.    Storage:    224541 words, CPU-time:      0.00 seconds.

 A level shift of 0.20 is applied.

  ITER. STATE  ROOT     SQ.NORM     CORR.ENERGY   TOTAL ENERGY   ENERGY CHANGE       DEN1      VAR(S)    VAR(P)      TIME
    1     1     1     1.03262054    -0.00652411  -269.35108268    -0.00652411    -0.84284423  0.33D-01  0.25D+00     0.53
    2     1     1     1.26974448    -0.87683327  -270.22139185    -0.87030916     0.00529646  0.77D-03  0.51D-03     0.56
    3     1     1     1.26161521    -0.87740223  -270.22196080    -0.00056895    -0.00096324  0.22D-04  0.11D-04     0.58
    4     1     1     1.26244020    -0.87761463  -270.22217321    -0.00021240     0.00016109  0.67D-06  0.32D-06     0.61
    5     1     1     1.26235248    -0.87759846  -270.22215703     0.00001617    -0.00002524  0.23D-07  0.99D-08     0.63
    6     1     1     1.26236743    -0.87760149  -270.22216007    -0.00000303     0.00000456  0.72D-09  0.33D-09     0.65
    7     1     1     1.26236513    -0.87760103  -270.22215961     0.00000046    -0.00000076  0.25D-10  0.11D-10     0.67
    8     1     1     1.26236555    -0.87760112  -270.22215969    -0.00000008     0.00000014  0.80D-12  0.36D-12     0.69

 Energies without level shift correction:

    8     1     1     1.26236555    -0.82512801  -270.16968658

 Energy contributions for state 1.1:
 ===================================

            Energy contr.      SQ.Norm of FOWF
 Space I     -0.00000000          0.00000000
 Space S     -0.05398522          0.02544530
 Space P     -0.77114278          0.23692025


 =====================================
 Analysis of CPU times by interactions
 =====================================

       I      S      P

 I   0.0%
 S   0.0%   4.3%
 P   4.3%   5.8%   7.2%

 Initialization:  72.5%
 Other:            5.8%

 Total CPU:        0.7 seconds
 =====================================



 Wavefunction saved on  7100.1

 Reference coefficients greater than 0.0500000
 =============================================
 2222222222222222/2           1.0000000

 Coefficients of singly external configurations greater than 0.0500000
 =====================================================================

 222222222222222202  74.1    -0.0725428

 Coefficients of doubly external configurations greater than 0.0500000
 =====================================================================

 PAIR    I     J   ->   K     L     NP  SYM  REF     COEFFICIENTS

 323   24.1  24.1     25.1  25.1     1   1    1   -0.07001232


 RESULTS FOR STATE 1.1
 =====================

 Coefficient of reference function:   C(0) = 1.00000000 (fixed)   1.00000000 (relaxed)

 Energy contributions of configuration classes

 CLASS          SQ.NORM        ECORR1        ECORR2
 +++++++++++++++++++++++++++++++++++++++++++++++++++
 Internals    0.00000000   -0.00000000    0.87760107
 Singles      0.02544530   -0.05398520   -0.11483668
 Pairs        0.23692025   -0.77114276   -1.64036550
 Total        1.26236555   -0.82512796   -0.87760112
 +++++++++++++++++++++++++++++++++++++++++++++++++++


 Reference energy                    -269.34455858
 Nuclear energy                       180.52745894
 Kinetic energy                       269.53713383
 One electron energy                 -722.16981824
 Two electron energy                  271.42019961
 Virial quotient                       -1.00254149
 Correlation energy                    -0.87760112
 !RSPT2 STATE 1.1 Energy             -270.222159692423

 Properties without orbital relaxation:

 !RSPT2 STATE 1.1 Dipole moment         0.00234788     0.18532434     0.62011562
 Dipole moment /Debye                   0.00596771     0.47104749     1.57617668


 **********************************************************************************************************************************
 DATASETS  * FILE   NREC   LENGTH (MB)   RECORD NAMES
              1      22      129.47       500      610      700      900      950      970     1000      129      960     1100   
                                          VAR    BASINP    GEOM    SYMINP    ZMAT    AOBASIS   BASIS     P2S    ABASIS      S 
                                         1400     1410     1200     1210     1080     1600     1650     1700     1380     7000   
                                           T        V       H0       H01     AOSYM     SMH    MOLCAS    OPER     JKOP   
                                         7001     7100   
                                                  MRCI   

              2       4        1.08       700     1000      520     2140   
                                         GEOM     BASIS   MCVARS    MCSCF   

 PROGRAMS   *        TOTAL       RS2     MULTI       INT
 CPU TIMES  *         8.33      0.84      6.66      0.71
 REAL TIME  *        13.59 SEC
 DISK USED  *       130.63 MB (local),        1.19 GB (total)
 SF USED    *       227.14 MB
 GA USED    *         0.00 MB       (max)       0.00 MB       (current)
 **********************************************************************************************************************************

 RS2/cc-pVDZ energy=   -270.222159692423

             RS2           MULTI
   -270.22215969   -269.01137208
 **********************************************************************************************************************************
 Molpro calculation terminated with 2 warning(s)
