
 Working directory              : /s1/sjklipp/
 Global scratch directory       : /s1/sjklipp/
 Wavefunction directory         : /tcghome/sjk/wfu/
 Main file repository           : /s1/sjklipp/

 id        : anlgov

 Nodes      nprocs
 ram02.local    7
 Distribution of processes:   nprocs(total)=    8   nprocs(compute)=    7   nprocs(helper)=    1
 GA implementation: MPI file
 GA implementation (serial work in mppx): MPI file

 Using customized tuning parameters: mindgm=1; mindgv=20; mindgc=4; mindgr=1; noblas=0; minvec=7
 default implementation of scratch files=sf  


 Variables initialized (1048), CPU time= 0.00 sec
 memory,200,m
 geometry={angs
  C         0.3465889322        0.0000000000       -0.5971276298
  H         1.4128674452        0.0000000000       -0.3241670193
  O        -0.4661212820        0.0000000000        0.4772282025
  O        -0.0627861140        0.0000000000       -1.7235427492
  C         0.1607555185        0.0000000000        1.7588077914
  H         1.2465550447        0.0000000000        1.6683318743
  H        -0.1547966694       -0.8880723308        2.2980073282
  H        -0.1547966694        0.8880723308        2.2980073282
  C        40.0000000000        0.2240717896       -1.1451455833
  O        40.0000000000       -0.4257729245       -0.0310038190
  O        40.0000000000        0.2009975339        1.0872294436
  H        40.0000000000        1.3023067736       -1.1030147654
  H        40.0000000000       -0.4044903172       -2.0168461950
 }
 basis=cc-pvdz
 hf
 mp2
 basis=cc-pvtz
 hf
 mp2
 Commands initialized (836), CPU time= 0.01 sec, 720 directives.
 Default parameters read. Elapsed time= 0.24 sec

 Checking input...
 Passed
1


                                         ***  PROGRAM SYSTEM MOLPRO  ***
                                       Copyright, TTI GmbH Stuttgart, 2015
                                  Version 2024.3 linked Mon Nov 11 20:00:20 2024


 **********************************************************************************************************************************
 LABEL *                                                                                                                                                                 
  64 bit mpp version                                                                     DATE: 21-Jan-25          TIME: 20:09:28  
 **********************************************************************************************************************************

 SHA1:             d3391fb321d180b9e53a06fe9a0246f02e43302c
 **********************************************************************************************************************************

 Memory per process:       200 MW
 Total memory per node:   1400 MW

 GA preallocation disabled
 GA check disabled

 Variable memory set to 200.0 MW


 Geometry recognized as XYZ

 SETTING BASIS          =    CC-PVDZ


 Recomputing integrals since basis changed


 Using spherical harmonics

 Library entry C      S cc-pVDZ              selected for orbital group  1
 Library entry C      P cc-pVDZ              selected for orbital group  1
 Library entry C      D cc-pVDZ              selected for orbital group  1
 Library entry H      S cc-pVDZ              selected for orbital group  2
 Library entry H      P cc-pVDZ              selected for orbital group  2
 Library entry O      S cc-pVDZ              selected for orbital group  3
 Library entry O      P cc-pVDZ              selected for orbital group  3
 Library entry O      D cc-pVDZ              selected for orbital group  3


 PROGRAM * SEWARD (Integral evaluation for generally contracted gaussian basis sets)     Author: Roland Lindh, 1990

 Geometry written to block  1 of record 700


 Point group  C1  



 ATOMIC COORDINATES

 NR  ATOM    CHARGE       X              Y              Z

   1  C       6.00    0.654958160    0.000000000   -1.128407682
   2  H       1.00    2.669932522    0.000000000   -0.612586885
   3  O       8.00   -0.880841564    0.000000000    0.901830602
   4  O       8.00   -0.118648560    0.000000000   -3.257023760
   5  C       6.00    0.303783903    0.000000000    3.323665032
   6  H       1.00    2.355647634    0.000000000    3.152690327
   7  H       1.00   -0.292523310   -1.678213484    4.342604483
   8  H       1.00   -0.292523310    1.678213484    4.342604483
   9  C       6.00   75.589044985    0.423434315   -2.164011525
  10  O       8.00   75.589044985   -0.804594219   -0.058588727
  11  O       8.00   75.589044985    0.379830291    2.054565883
  12  H       1.00   75.589044985    2.461003132   -2.084395818
  13  H       1.00   75.589044985   -0.764375920   -3.811286944

 Bond lengths in Bohr (Angstrom)

 1-2  2.079950186  1-3  2.545692102  1-4  2.264834158  3-5  2.696037741  5-6  2.058974774
     ( 1.100662238)     ( 1.347122246)     ( 1.198498623)     ( 1.426681732)     ( 1.089562528)

  5- 7  2.051882159   5- 8  2.051882159   9-10  2.437387790   9-12  2.039123672   9-13  2.030864214
       ( 1.085809278)       ( 1.085809278)       ( 1.289810073)       ( 1.079057777)       ( 1.074687061)

 10-11  2.422454091
       ( 1.281907499)

 Bond angles

  1-3-5  116.82856521   2-1-3  112.74715030   2-1-4  124.33175201   3-1-4  122.92109770

  3-5-6  111.30203015   3-5-7  108.56541003   3-5-8  108.56541003   6-5-7  109.32019791

  6- 5- 8  109.32019791   7- 5- 8  109.74821779   9-10-11  120.47564100  10- 9-12  118.01607100

 10- 9-13  113.95184284  12- 9-13  128.03208616

 NUCLEAR CHARGE:                   56
 NUMBER OF PRIMITIVE AOS:         231
 NUMBER OF SYMMETRY AOS:          224
 NUMBER OF CONTRACTIONS:          128   (  128A   )
 NUMBER OF INNER CORE ORBITALS:     0   (    0A   )
 NUMBER OF OUTER CORE ORBITALS:     7   (    7A   )
 NUMBER OF VALENCE ORBITALS:       34   (   34A   )


 NUCLEAR REPULSION ENERGY  200.78071232

 EXTRA SYMMETRY OF AOS IN SYMMETRY 1:   1 1 1 1 1 1 1 1 1 1   1 1 1 1 1 1 1 1 1 1   1 1 1 1 1 1 1 1 1 1   1 1 1 1 1 1 1 1 1 1
                                        1 1 1 1 1 1 1 1 1 1   1 1 1 1 1 1 1 1 1 1   1 1 1 1 1 1 1 1 1 1   1 1 1 1 1 1 2 2 2 2
                                        2 2 2 2 2 2 2 2 2 2   2 2 2 2 2 2 2 2 2 2   2 2 2 2 2 2 2 2 2 2   2 2 2 2 2 2 2 2 2 2
                                        2 2 2 2 2 2 2 2

 Eigenvalues of metric

         1 0.899E-02 0.104E-01 0.104E-01 0.126E-01 0.137E-01 0.174E-01 0.200E-01 0.252E-01


 Contracted 2-electron integrals neglected if value below      1.0D-11
 AO integral compression algorithm  1   Integral accuracy      1.0D-11

     30.671 MB (compressed) written to integral file ( 36.8%)

     Node minimum: 3.670 MB, node maximum: 5.767 MB


 NUMBER OF SORTED TWO-ELECTRON INTEGRALS:    4869270.     BUFFER LENGTH:  32768
 NUMBER OF SEGMENTS:   1  SEGMENT LENGTH:    4869270      RECORD LENGTH: 524288

 Memory used in sort:       5.43 MW

 SORT1 READ    10518122. AND WROTE     1027173. INTEGRALS IN      3 RECORDS. CPU TIME:     0.12 SEC, REAL TIME:     0.14 SEC
 SORT2 READ     6935738. AND WROTE    34084896. INTEGRALS IN    112 RECORDS. CPU TIME:     0.05 SEC, REAL TIME:     0.06 SEC

 Node minimum:     4865733.  Node maximum:     4872810. integrals

 OPERATOR DM      FOR CENTER  0  COORDINATES:    0.000000    0.000000    0.000000


 **********************************************************************************************************************************
 DATASETS  * FILE   NREC   LENGTH (MB)   RECORD NAMES
              1      18       29.64       500      610      700      900      950      970     1000      129      960     1100   
                                          VAR    BASINP    GEOM    SYMINP    ZMAT    AOBASIS   BASIS     P2S    ABASIS      S 
                                         1400     1410     1200     1210     1080     1600     1650     1700   
                                           T        V       H0       H01     AOSYM     SMH    MOLCAS    OPER   

 PROGRAMS   *        TOTAL       INT
 CPU TIMES  *         0.73      0.54
 REAL TIME  *         1.06 SEC
 DISK USED  *        30.19 MB (local),      323.99 MB (total)
 GA USED    *         0.00 MB       (max)       0.00 MB       (current)
 **********************************************************************************************************************************


 Program * Restricted Hartree-Fock

 Orbital guess generated from atomic densities. Full valence occupancy:   41

 Initial occupancy:  28

 NELEC=   56   SYM=1   MS2= 0   THRE=1.0D-08   THRD=3.2D-06   THRG=3.2D-06  HFMA2=F  DIIS_START=2   DIIS_MAX=10   DIIS_INCORE=F

 Level shifts:    0.00 (CLOSED)    0.00 (OPEN)    0.30 (GAP_MIN)

 ITER           ETOT              DE          GRAD        DDIFF     DIIS  NEXP   TIME(IT)  TIME(TOT)  DIAG
   1     -416.15870743    -416.15870743     0.00D+00     0.11D+00     0     0       0.02      0.05    start
   2     -416.25002859      -0.09132115     0.87D-02     0.19D-01     1     0       0.02      0.07    diag
   3     -416.34753146      -0.09750287     0.68D-02     0.89D-02     2     0       0.02      0.09    diag
   4     -416.35073163      -0.00320017     0.97D-03     0.16D-02     3     0       0.02      0.11    diag
   5     -416.35146115      -0.00072952     0.38D-03     0.82D-03     4     0       0.03      0.14    diag
   6     -416.35166584      -0.00020469     0.19D-03     0.36D-03     5     0       0.02      0.16    diag
   7     -416.35172601      -0.00006016     0.71D-04     0.24D-03     6     0       0.02      0.18    diag
   8     -416.35173392      -0.00000791     0.34D-04     0.86D-04     7     0       0.03      0.21    fixocc
   9     -416.35173530      -0.00000138     0.13D-04     0.38D-04     8     0       0.02      0.23    diag
  10     -416.35173563      -0.00000033     0.63D-05     0.21D-04     9     0       0.02      0.25    diag/orth
  11     -416.35173569      -0.00000006     0.26D-05     0.10D-04     9     0       0.02      0.27    diag
  12     -416.35173570      -0.00000001     0.12D-05     0.34D-05     9     0       0.03      0.30    diag
  13     -416.35173570      -0.00000000     0.34D-06     0.90D-06     9     0       0.02      0.32    diag
  14     -416.35173570      -0.00000000     0.18D-06     0.38D-06     0     0       0.02      0.34    diag

 Final occupancy:  28

 !RHF STATE 1.1 Energy               -416.351735696084
  RHF One-electron energy            -968.045372391297
  RHF Two-electron energy             350.912924370483
  RHF Kinetic energy                  416.093338499719
  RHF Nuclear energy                  200.780712324730
  RHF Virial quotient                  -1.000621007770

 !RHF STATE 1.1 Dipole moment           0.92560702     0.18908238    -0.47637465
 Dipole moment /Debye                   2.35265838     0.48059946    -1.21082358

 Orbital energies:

           1.1          2.1          3.1          4.1          5.1          6.1          7.1          8.1          9.1         10.1
    -20.740204   -20.611384   -20.552726   -20.523308   -11.390820   -11.383121   -11.311668    -1.588260    -1.463304    -1.371661

          11.1         12.1         13.1         14.1         15.1         16.1         17.1         18.1         19.1         20.1
     -1.202912    -0.986286    -0.913042    -0.850803    -0.766813    -0.726081    -0.714026    -0.676837    -0.676777    -0.676104

          21.1         22.1         23.1         24.1         25.1         26.1         27.1         28.1         29.1         30.1
     -0.597626    -0.593042    -0.564813    -0.542158    -0.455814    -0.453953    -0.409914    -0.366292     0.056237     0.173344


 HOMO     28.1    -0.366292 =      -9.9673eV
 LUMO     29.1     0.056237 =       1.5303eV
 LUMO-HOMO         0.422529 =      11.4976eV

 Orbitals saved in record  2100.2


 **********************************************************************************************************************************
 DATASETS  * FILE   NREC   LENGTH (MB)   RECORD NAMES
              1      18       29.64       500      610      700      900      950      970     1000      129      960     1100   
                                          VAR    BASINP    GEOM    SYMINP    ZMAT    AOBASIS   BASIS     P2S    ABASIS      S 
                                         1400     1410     1200     1210     1080     1600     1650     1700   
                                           T        V       H0       H01     AOSYM     SMH    MOLCAS    OPER   

              2       4        0.84       700     1000      520     2100   
                                         GEOM     BASIS   MCVARS     RHF  

 PROGRAMS   *        TOTAL    HF-SCF       INT
 CPU TIMES  *         1.08      0.34      0.54
 REAL TIME  *         1.44 SEC
 DISK USED  *        31.71 MB (local),      334.61 MB (total)
 GA USED    *         0.00 MB       (max)       0.00 MB       (current)
 **********************************************************************************************************************************


 PROGRAM * MP2 (Closed-shell)     Authors: C. Hampel, H.-J. Werner, 1991, M. Deegan, P.J. Knowles, 1992


 Convergence thresholds:  THRVAR = 1.00D-08  THRDEN = 1.00D-06

 Number of core orbitals:           7 (   7 )
 Number of closed-shell orbitals:  21 (  21 )
 Number of external orbitals:     100 ( 100 )

 Molecular orbitals read from record     2100.2  Type=RHF/CANONICAL  

 Number of N-1 electron functions:              21
 Number of N-2 electron functions:             231
 Number of singly external CSFs:              2100
 Number of doubly external CSFs:           2206050
 Total number of CSFs:                     2208151

 Length of J-op  integral file:               0.00 MB
 Length of K-op  integral file:               1.12 MB

 Integral transformation finished. Total CPU:   0.71 sec, npass=  1  Memory used:   6.47 MW

 Memory needed for MP2:                      0.08 MW

 SCS-MP2 correlation energy:           -1.131053072165   (PS=  1.200000  PT=  0.333333)
 SCS-MP2 total energy:               -417.482788768249


  Reference energy                   -416.351735696084
  MP2 singlet pair energy              -0.709347267365
  MP2 triplet pair energy              -0.449736993205
  MP2 correlation energy               -1.159084260569

 !MP2 total energy                   -417.510819956653


 **********************************************************************************************************************************
 DATASETS  * FILE   NREC   LENGTH (MB)   RECORD NAMES
              1      19       73.32       500      610      700      900      950      970     1000      129      960     1100   
                                          VAR    BASINP    GEOM    SYMINP    ZMAT    AOBASIS   BASIS     P2S    ABASIS      S 
                                         1400     1410     1200     1210     1080     1600     1650     1700     1380   
                                           T        V       H0       H01     AOSYM     SMH    MOLCAS    OPER     JKOP   

              2       4        0.84       700     1000      520     2100   
                                         GEOM     BASIS   MCVARS     RHF  

 PROGRAMS   *        TOTAL       MP2    HF-SCF       INT
 CPU TIMES  *         1.89      0.81      0.34      0.54
 REAL TIME  *         2.38 SEC
 DISK USED  *        74.25 MB (local),      632.44 MB (total)
 SF USED    *        89.90 MB
 GA USED    *         0.00 MB       (max)       0.00 MB       (current)
 **********************************************************************************************************************************
 SETTING BASIS          =    CC-PVTZ


 Recomputing integrals since basis changed


 Using spherical harmonics

 Library entry C      S cc-pVTZ              selected for orbital group  1
 Library entry C      P cc-pVTZ              selected for orbital group  1
 Library entry C      D cc-pVTZ              selected for orbital group  1
 Library entry C      F cc-pVTZ              selected for orbital group  1
 Library entry H      S cc-pVTZ              selected for orbital group  2
 Library entry H      P cc-pVTZ              selected for orbital group  2
 Library entry H      D cc-pVTZ              selected for orbital group  2
 Library entry O      S cc-pVTZ              selected for orbital group  3
 Library entry O      P cc-pVTZ              selected for orbital group  3
 Library entry O      D cc-pVTZ              selected for orbital group  3
 Library entry O      F cc-pVTZ              selected for orbital group  3


 PROGRAM * SEWARD (Integral evaluation for generally contracted gaussian basis sets)     Author: Roland Lindh, 1990

 Geometry written to block  1 of record 700


 Point group  C1  



 ATOMIC COORDINATES

 NR  ATOM    CHARGE       X              Y              Z

   1  C       6.00    0.654958160    0.000000000   -1.128407682
   2  H       1.00    2.669932522    0.000000000   -0.612586885
   3  O       8.00   -0.880841564    0.000000000    0.901830602
   4  O       8.00   -0.118648560    0.000000000   -3.257023760
   5  C       6.00    0.303783903    0.000000000    3.323665032
   6  H       1.00    2.355647634    0.000000000    3.152690327
   7  H       1.00   -0.292523310   -1.678213484    4.342604483
   8  H       1.00   -0.292523310    1.678213484    4.342604483
   9  C       6.00   75.589044985    0.423434315   -2.164011525
  10  O       8.00   75.589044985   -0.804594219   -0.058588727
  11  O       8.00   75.589044985    0.379830291    2.054565883
  12  H       1.00   75.589044985    2.461003132   -2.084395818
  13  H       1.00   75.589044985   -0.764375920   -3.811286944

 Bond lengths in Bohr (Angstrom)

 1-2  2.079950186  1-3  2.545692102  1-4  2.264834158  3-5  2.696037741  5-6  2.058974774
     ( 1.100662238)     ( 1.347122246)     ( 1.198498623)     ( 1.426681732)     ( 1.089562528)

  5- 7  2.051882159   5- 8  2.051882159   9-10  2.437387790   9-12  2.039123672   9-13  2.030864214
       ( 1.085809278)       ( 1.085809278)       ( 1.289810073)       ( 1.079057777)       ( 1.074687061)

 10-11  2.422454091
       ( 1.281907499)

 Bond angles

  1-3-5  116.82856521   2-1-3  112.74715030   2-1-4  124.33175201   3-1-4  122.92109770

  3-5-6  111.30203015   3-5-7  108.56541003   3-5-8  108.56541003   6-5-7  109.32019791

  6- 5- 8  109.32019791   7- 5- 8  109.74821779   9-10-11  120.47564100  10- 9-12  118.01607100

 10- 9-13  113.95184284  12- 9-13  128.03208616

 NUCLEAR CHARGE:                   56
 NUMBER OF PRIMITIVE AOS:         431
 NUMBER OF SYMMETRY AOS:          390
 NUMBER OF CONTRACTIONS:          294   (  294A   )
 NUMBER OF INNER CORE ORBITALS:     0   (    0A   )
 NUMBER OF OUTER CORE ORBITALS:     7   (    7A   )
 NUMBER OF VALENCE ORBITALS:       34   (   34A   )


 NUCLEAR REPULSION ENERGY  200.78071232

 EXTRA SYMMETRY OF AOS IN SYMMETRY 1:   1 1 1 1 1 1 1 1 1 1   1 1 1 1 1 1 1 1 1 1   1 1 1 1 1 1 1 1 1 1   1 1 1 1 1 1 1 1 1 1
                                        1 1 1 1 1 1 1 1 1 1   1 1 1 1 1 1 1 1 1 1   1 1 1 1 1 1 1 1 1 1   1 1 1 1 1 1 1 1 1 1
                                        1 1 1 1 1 1 1 1 1 1   1 1 1 1 1 1 1 1 1 1   1 1 1 1 1 1 1 1 1 1   1 1 1 1 1 1 1 1 1 1
                                        1 1 1 1 1 1 1 1 1 1   1 1 1 1 1 1 1 1 1 1   1 1 1 1 1 1 1 1 1 1   1 1 1 1 1 1 1 1 1 1
                                        1 1 1 1 1 1 1 1 1 1   1 1 1 1 1 1 2 2 2 2   2 2 2 2 2 2 2 2 2 2   2 2 2 2 2 2 2 2 2 2
                                        2 2 2 2 2 2 2 2 2 2   2 2 2 2 2 2 2 2 2 2   2 2 2 2 2 2 2 2 2 2   2 2 2 2 2 2 2 2 2 2
                                        2 2 2 2 2 2 2 2 2 2   2 2 2 2 2 2 2 2 2 2   2 2 2 2 2 2 2 2 2 2   2 2 2 2 2 2 2 2 2 2
                                        2 2 2 2 2 2 2 2 2 2   2 2 2 2

 Eigenvalues of metric

         1 0.121E-02 0.140E-02 0.148E-02 0.175E-02 0.178E-02 0.181E-02 0.244E-02 0.274E-02


 Contracted 2-electron integrals neglected if value below      1.0D-11
 AO integral compression algorithm  1   Integral accuracy      1.0D-11

     662.176 MB (compressed) written to integral file ( 29.4%)

     Node minimum: 91.750 MB, node maximum: 98.566 MB


 NUMBER OF SORTED TWO-ELECTRON INTEGRALS:  134344770.     BUFFER LENGTH:  32768
 NUMBER OF SEGMENTS:   9  SEGMENT LENGTH:   15995868      RECORD LENGTH: 524288

 Memory used in sort:      16.55 MW

 SORT1 READ   281269382. AND WROTE    24133134. INTEGRALS IN     74 RECORDS. CPU TIME:     3.06 SEC, REAL TIME:     3.35 SEC
 SORT2 READ   170559267. AND WROTE   940283295. INTEGRALS IN   2478 RECORDS. CPU TIME:     0.75 SEC, REAL TIME:     0.95 SEC

 Node minimum:   134307600.  Node maximum:   134344770. integrals

 OPERATOR DM      FOR CENTER  0  COORDINATES:    0.000000    0.000000    0.000000


 **********************************************************************************************************************************
 DATASETS  * FILE   NREC   LENGTH (MB)   RECORD NAMES
              1      18       32.10       500      610      700      900      950      970     1001      129      960     1100   
                                          VAR    BASINP    GEOM    SYMINP    ZMAT    AOBASIS   BASIS     P2S    ABASIS      S 
                                         1400     1410     1200     1210     1080     1600     1650     1700   
                                           T        V       H0       H01     AOSYM     SMH    MOLCAS    OPER   

              2       5        1.08       700     1000      520     2100     1001   
                                         GEOM     BASIS   MCVARS     RHF     BASIS   

 PROGRAMS   *        TOTAL       INT       MP2    HF-SCF       INT
 CPU TIMES  *         7.54      5.65      0.81      0.34      0.54
 REAL TIME  *         8.66 SEC
 DISK USED  *        74.25 MB (local),        3.17 GB (total)
 SF USED    *        89.90 MB
 GA USED    *         0.00 MB       (max)       0.00 MB       (current)
 **********************************************************************************************************************************


 Program * Restricted Hartree-Fock

 Molecular orbitals read from record     2100.2  Type=RHF/CANONICAL  

 Present basis size:      294
 Previous basis size:     128
 Previous occupation:      28
 Previous closed-shells:   28
 Previous core-orbitals:    7
 Present occupation:       28
 Present closed-shells:    28
 Present core-orbitals:     7
 Wavefunction symmetry:    1   Singlet 

 Orbital overlap <old|new>:  < 1.1| 1.1> = 0.999998   < 2.1| 2.1> = 0.999998   < 3.1| 3.1> = 0.999998   < 4.1| 4.1> = 0.999998
                             < 5.1| 5.1> = 0.999999   < 6.1| 6.1> = 0.999999   < 7.1| 7.1> = 0.999999   < 8.1| 8.1> = 0.999931
                             < 9.1| 9.1> = 0.999945   <10.1|10.1> = 0.999954   <11.1|11.1> = 0.999920   <12.1|12.1> = 0.999940
                             <13.1|13.1> = 0.999912   <14.1|14.1> = 0.999914   <15.1|15.1> = 0.999856   <16.1|16.1> = 0.999890
                             <17.1|17.1> = 0.999856   <18.1|18.1> = 0.999834   <19.1|19.1> = 0.999860   <20.1|20.1> = 0.999690
                             <21.1|21.1> = 0.999870   <22.1|22.1> = 0.999793   <23.1|23.1> = 0.999815   <24.1|24.1> = 0.999838
                             <25.1|25.1> = 0.999601   <26.1|26.1> = 0.999755   <27.1|27.1> = 0.999632   <28.1|28.1> = 0.999591


 Initial occupancy:  28

 NELEC=   56   SYM=1   MS2= 0   THRE=1.0D-08   THRD=3.2D-06   THRG=3.2D-06  HFMA2=F  DIIS_START=2   DIIS_MAX=10   DIIS_INCORE=F

 Level shifts:    0.00 (CLOSED)    0.00 (OPEN)    0.30 (GAP_MIN)

 ITER           ETOT              DE          GRAD        DDIFF     DIIS  NEXP   TIME(IT)  TIME(TOT)  DIAG
   1     -416.43251685    -416.43251685     0.00D+00     0.49D-01     0     0       0.62      0.68    start
   2     -416.48419679      -0.05167994     0.40D-02     0.55D-02     1     0       0.65      1.33    diag
   3     -416.48501310      -0.00081631     0.38D-03     0.78D-03     2     0       0.62      1.95    diag
   4     -416.48509732      -0.00008422     0.13D-03     0.13D-03     3     0       0.66      2.61    diag
   5     -416.48511480      -0.00001749     0.43D-04     0.57D-04     4     0       0.63      3.24    diag
   6     -416.48511787      -0.00000307     0.14D-04     0.23D-04     5     0       0.66      3.90    diag
   7     -416.48511855      -0.00000068     0.53D-05     0.12D-04     6     0       0.66      4.56    diag
   8     -416.48511867      -0.00000012     0.22D-05     0.47D-05     7     0       0.65      5.21    fixocc
   9     -416.48511871      -0.00000004     0.14D-05     0.32D-05     8     0       0.65      5.86    diag
  10     -416.48511872      -0.00000001     0.40D-06     0.11D-05     9     0       0.67      6.53    diag/orth
  11     -416.48511872      -0.00000000     0.25D-06     0.33D-06     0     0       0.64      7.17    diag

 Final occupancy:  28

 !RHF STATE 1.1 Energy               -416.485118718945
  RHF One-electron energy            -968.200373777564
  RHF Two-electron energy             350.934542733888
  RHF Kinetic energy                  415.933058285962
  RHF Nuclear energy                  200.780712324730
  RHF Virial quotient                  -1.001327281932

 !RHF STATE 1.1 Dipole moment           0.91079343     0.18632781    -0.48365767
 Dipole moment /Debye                   2.31500600     0.47359804    -1.22933517

 Orbital energies:

           1.1          2.1          3.1          4.1          5.1          6.1          7.1          8.1          9.1         10.1
    -20.743216   -20.614084   -20.551342   -20.525844   -11.385003   -11.379990   -11.306027    -1.585618    -1.463813    -1.372473

          11.1         12.1         13.1         14.1         15.1         16.1         17.1         18.1         19.1         20.1
     -1.202437    -0.986962    -0.915345    -0.853403    -0.769055    -0.729009    -0.717409    -0.680541    -0.680505    -0.679264

          21.1         22.1         23.1         24.1         25.1         26.1         27.1         28.1         29.1         30.1
     -0.600742    -0.597415    -0.568779    -0.546583    -0.462098    -0.459888    -0.415412    -0.373350     0.046997     0.130095


 HOMO     28.1    -0.373350 =     -10.1594eV
 LUMO     29.1     0.046997 =       1.2789eV
 LUMO-HOMO         0.420347 =      11.4382eV

 Orbitals saved in record  2101.2


 **********************************************************************************************************************************
 DATASETS  * FILE   NREC   LENGTH (MB)   RECORD NAMES
              1      18       32.10       500      610      700      900      950      970     1001      129      960     1100   
                                          VAR    BASINP    GEOM    SYMINP    ZMAT    AOBASIS   BASIS     P2S    ABASIS      S 
                                         1400     1410     1200     1210     1080     1600     1650     1700   
                                           T        V       H0       H01     AOSYM     SMH    MOLCAS    OPER   

              2       6        2.51       700     1000      520     2100     1001     2101   
                                         GEOM     BASIS   MCVARS     RHF     BASIS     RHF  

 PROGRAMS   *        TOTAL    HF-SCF       INT       MP2    HF-SCF       INT
 CPU TIMES  *        14.71      7.17      5.65      0.81      0.34      0.54
 REAL TIME  *        16.05 SEC
 DISK USED  *        74.25 MB (local),        3.17 GB (total)
 SF USED    *        89.90 MB
 GA USED    *         0.00 MB       (max)       0.00 MB       (current)
 **********************************************************************************************************************************


 PROGRAM * MP2 (Closed-shell)     Authors: C. Hampel, H.-J. Werner, 1991, M. Deegan, P.J. Knowles, 1992


 Convergence thresholds:  THRVAR = 1.00D-08  THRDEN = 1.00D-06

 Number of core orbitals:           7 (   7 )
 Number of closed-shell orbitals:  21 (  21 )
 Number of external orbitals:     266 ( 266 )

 Molecular orbitals read from record     2101.2  Type=RHF/CANONICAL (state 1.1)

 Number of N-1 electron functions:              21
 Number of N-2 electron functions:             231
 Number of singly external CSFs:              5586
 Number of doubly external CSFs:          15604491
 Total number of CSFs:                    15610078

 Length of J-op  integral file:               0.00 MB
 Length of K-op  integral file:               5.94 MB

 Integral transformation finished. Total CPU:  11.51 sec, npass=  1  Memory used:  34.10 MW

 Memory needed for MP2:                      0.42 MW

 SCS-MP2 correlation energy:           -1.427532437016   (PS=  1.200000  PT=  0.333333)
 SCS-MP2 total energy:               -417.912651155960


  Reference energy                   -416.485118718945
  MP2 singlet pair energy              -0.907843344795
  MP2 triplet pair energy              -0.543407823100
  MP2 correlation energy               -1.451251167895

 !MP2 total energy                   -417.936369886839


 **********************************************************************************************************************************
 DATASETS  * FILE   NREC   LENGTH (MB)   RECORD NAMES
              1      19      262.19       500      610      700      900      950      970     1001      129      960     1100   
                                          VAR    BASINP    GEOM    SYMINP    ZMAT    AOBASIS   BASIS     P2S    ABASIS      S 
                                         1400     1410     1200     1210     1080     1600     1650     1700     1380   
                                           T        V       H0       H01     AOSYM     SMH    MOLCAS    OPER     JKOP   

              2       6        2.51       700     1000      520     2100     1001     2101   
                                         GEOM     BASIS   MCVARS     RHF     BASIS     RHF  

 PROGRAMS   *        TOTAL       MP2    HF-SCF       INT       MP2    HF-SCF       INT
 CPU TIMES  *        26.71     12.00      7.17      5.65      0.81      0.34      0.54
 REAL TIME  *        28.50 SEC
 DISK USED  *       264.81 MB (local),        4.47 GB (total)
 SF USED    *       549.03 MB
 GA USED    *         0.00 MB       (max)       0.00 MB       (current)
 **********************************************************************************************************************************

 MP2/cc-pVTZ energy=   -417.936369886839

             MP2          HF-SCF             MP2          HF-SCF
   -417.93636989   -416.48511872   -417.51081996   -416.35173570
 **********************************************************************************************************************************
 Molpro calculation terminated
