
                                 *****************
                                 * O   R   C   A *
                                 *****************

                                            #,                                       
                                            ###                                      
                                            ####                                     
                                            #####                                    
                                            ######                                   
                                           ########,                                 
                                     ,,################,,,,,                         
                               ,,#################################,,                 
                          ,,##########################################,,             
                       ,#########################################, ''#####,          
                    ,#############################################,,   '####,        
                  ,##################################################,,,,####,       
                ,###########''''           ''''###############################       
              ,#####''   ,,,,##########,,,,          '''####'''          '####       
            ,##' ,,,,###########################,,,                        '##       
           ' ,,###''''                  '''############,,,                           
         ,,##''                                '''############,,,,        ,,,,,,###''
      ,#''                                            '''#######################'''  
     '                                                          ''''####''''         
             ,#######,   #######,   ,#######,      ##                                
            ,#'     '#,  ##    ##  ,#'     '#,    #''#        ,####,    ,#,          
            ##       ##  ##   ,#'  ##            #'  '#       #'       ,# #          
            ##       ##  #######   ##           ,######,      #####,      #          
            '#,     ,#'  ##    ##  '#,     ,#' ,#      #,     #,   #      #          
             '#######'   ##     ##  '#######'  #'      '#     '####' #    #          



                #########################################################
                #                        -***-                          #
                #          Department of theory and spectroscopy        #
                #                                                       #
                #                      Frank Neese                      #
                #                                                       #
                #     Directorship, Architecture, Infrastructure        #
                #                    SHARK, DRIVERS                     #
                #        Core code/Algorithms in most modules           #
                #                                                       #
                #        Max Planck Institute fuer Kohlenforschung      #
                #                Kaiser Wilhelm Platz 1                 #
                #                 D-45470 Muelheim/Ruhr                 #
                #                      Germany                          #
                #                                                       #
                #                  All rights reserved                  #
                #                        -***-                          #
                #########################################################


                         Program Version 6.1.1  -  RELEASE   -
                                (GIT: $487d211c$)
                          ($2025-11-21 10:33:24 +0100$)


 With contributions from (in alphabetic order):
[Max-Planck-Institut fuer Kohlenforschung]                               
  Daniel Aravena         : Magnetic Suceptibility                        
  Michael Atanasov       : Ab Initio Ligand Field Theory (pilot matlab implementation)
  Alexander A. Auer      : GIAO ZORA, VPT2 properties, NMR spectrum      
  Ute Becker             : All parallelization in ORCA, NUMFREQ, NUMCALC 
  Giovanni Bistoni       : ED, misc. LED, open-shell LED, HFLD           
  Dmytro Bykov           : pre 5.0 version of the SCF Hessian            
  Marcos Casanova-Páez   : Triplet and SCS-CIS(D). UHF-(DLPNO)-IP/EA/STEOM-CCSD. UHF-CVS-IP/STEOM-CCSD   
  Vijay G. Chilkuri      : MRCI spin determinant printing, contributions to CSF-ICE 
  Pauline Colinet        : FMM embedding                                 
  Dipayan Datta          : RHF DLPNO-CCSD density                        
  Achintya Kumar Dutta   : EOM-CC, STEOM-CC                              
  Nicolas Foglia         : Exact transition moments, OPA infrastructure, MCD improvements    
  Dmitry Ganyushin       : Spin-Orbit,Spin-Spin,Magnetic field MRCI      
  Miquel Garcia-Rates    : C-PCM and meta-GGA Hessian, CCSD/C-PCM, Gaussian charge scheme 
  Tiago L. C. Gouveia    : GS-ROHF, GS-ROCIS                             
  Yang Guo               : DLPNO-NEVPT2, F12-NEVPT2, CIM, IAO-localization        
  Andreas Hansen         : Spin unrestricted coupled pair/coupled cluster methods 
  Ingolf Harden          : AUTO-CI MPn and infrastructure                
  Benjamin Helmich-Paris : MC-RPA, TRAH-(SCF,CASSCF), AVAS, COSX integrals, SCF dyn. polar., MC-PDFT, srDFT 
  Lee Huntington         : MR-EOM, pCC                                   
  Robert Izsak           : Overlap fitted RIJCOSX, COSX-SCS-MP3, EOM     
  Riya Kayal             : Wick's Theorem for AUTO-CI, AUTO-CI UHF-CCSDT 
  Emily Kempfer          : AUTO-CI RHF CISDT and CCSDT, approximate NEVPT4
  Christian Kollmar      : KDIIS, OOCD, Brueckner-CCSD(T), CCSD density, CASPT2, CASPT2-K, improved NEVPT2 
  Axel Koslowski         : Symmetry handling                             
  Simone Kossmann        : meta-GGA functionals, TD-DFT gradient, OOMP2, (MP2 Hessian; deprecated post 5.0) 
  Lucas Lang             : DCDCAS, Hyperfine gauge corrections, ICE-SOC+SSC
  Marvin Lechner         : AUTO-CI (C++ implementation), FIC-MRCC        
  Spencer Leger          : CASSCF response                               
  Dagmar Lenk            : GEPOL surface, SMD, ORCA-2-JSON               
  Dimitrios Liakos       : Extrapolation schemes; Compound Job, Property file
  Dimitrios Manganas     : Further ROCIS development; embedding schemes. LFT, Crystal Embedding 
  Dimitrios Pantazis     : SARC Basis sets                               
  Anastasios Papadopoulos: AUTO-CI, single reference methods and gradients 
  Taras Petrenko         : pre 6.0 DFT Hessian and TD-DFT gradient,  ECA, NRVS 
  Petra Pikulova         : Analytic Raman intensities                    
  Peter Pinski           : DLPNO-MP2, DLPNO-MP2 Gradient                 
  Shashank Vittal Rao    : ES-AILFT, MagRelax                            
  Christoph Reimann      : Effective Core Potentials                     
  Marius Retegan         : Local ZFS, SOC                                
  Christoph Riplinger    : Optimizer, TS searches, QM/MM, DLPNO-CCSD(T), (RO)-DLPNO pert. Triples 
  Michael Roemelt        : Original ROCIS implementation, recursive CI coupling coefficients
  Masaaki Saitow         : Open-shell DLPNO-CCSD energy and density      
  Barbara Sandhoefer     : DKH picture change effects                    
  Yorick L. A. Schmerwitz: GMF and freeze-and-release deltaSCF, NEB S-IDPP initial path                    
  Kantharuban Sivalingam : CASSCF convergence/infrastructure, NEVPT2, NEVPT3, NEVPT4(SD), FIC-MRCI and CEPA variants
  Bernardo de Souza      : ESD, SOC TD-DFT                               
  Georgi L. Stoychev     : AutoAux, RI-MP2 NMR, DLPNO-MP2 response, X2C  
  Van Anh Tran           : RI-MP2 g-tensors                              
  Willem Van den Heuvel  : Paramagnetic NMR                              
  Zikuan Wang            : NOTCH, Electric field optimization            
  Frank Wennmohs         : Technical directorship and infrastructure     
  Hang Xu                : AUTO-CI-Response properties                   
                                                                         
[FACCTs GmbH]                                                            
  Markus Bursch, Nicolas Foglia, Miquel Garcia-Rates, Ingolf Harden, Hagen Neugebauer, Anastasios Papadopoulos, 
  Christoph Riplinger, Bernardo de Souza, Georgi L. Stoychev                                                    
                                                                 
  APM, various basis sets, CI-OPT, improved COSX, DLPNO-Multilevel,           
  DOCKER, DRACO, updates on ESD, Fragmentator, GOAT, IRC, LR-CPCM, L-BFGS, MBIS, meta-GGA TD-DFT gradient, ML-optimized integration grids, 
  MM, NACMEs, nearIR, NEB, NEB-TS, NL-DFT gradient (VV10), 2- and 3-layer-ONIOM, interface openCOSMO-RS, QMMM,   
  Crystal-QMMM, RESP, rigid body optimization, SF, symmetry and pop. for TD-DFT, various functionals, SOLVATOR                                   
                                                                         
[Other institutions]                                                     
  V. Asgeirsson          : NEB                                           
  Christoph Bannwarth    : sTDA-DFT, sTD-DFT, PBEh-3c, B97-3c, D3        
  Giovanni Bistoni       : ETS/NOCV, ADLD/ADEX, COVALED                  
  Martin Brehm           : Molecular dynamics                            
  Ronald Cardenas        : ETS/NOCV                                      
  Martina Colucci        : COVALED                                       
  Sebastian Ehlert       : rSCAN, r2SCAN, r2SCAN-3c, D4, dhf basis sets  
  Marvin Friede          : D4 for Fr, Ra, Ac-Lr                          
  Lars Goerigk           : TD-DFT with DH, B97 family of functionals     
  Stefan Grimme          : VdW corrections, initial TS optimization, DFT functionals, gCP, sTDA/sTD-DF 
  Waldemar Hujo          : DFT-NL                                        
  H. Jonsson             : NEB                                           
  Holger Kruse           : gCP                                           
  Marcel Mueller         : wB97X-3c, vDZP basis set                      
  Hagen Neugebauer       : wr2SCAN, Native XTB                           
  Gianluca Regni         : ADLD/ADEX                                     
  Tobias Risthaus        : pre 6.0 range-separated hybrid DFT and stability analysis
  Lukas Wittmann         : regularized MP2, r2SCAN double-hybrids, wr2SCAN        
                                                                         
We gratefully acknowledge several colleagues who have allowed us to      
interface, adapt or use parts of their codes:                            
  Ed Valeev, F. Pavosevic, A. Kumar             : LibInt (2-el integral package), F12 methods 
  Garnet Chan, S. Sharma, J. Yang, R. Olivares  : DMRG                   
  Ulf Ekstrom                                   : XCFun DFT Library      
  Mihaly Kallay                                 : mrcc  (arbitrary order and MRCC methods)
  Frank Weinhold                                : gennbo (NPA and NBO analysis)           
  Simon Mueller                                 : openCOSMO-RS                            
  Christopher J. Cramer and Donald G. Truhlar   : smd solvation model                     
  S Lehtola, MJT Oliveira, MAL Marques          : LibXC Library                           
  Liviu Ungur et al                             : ANISO software                          


 Your calculation uses the libint2 library for the computation of 2-el integrals
 For citations please refer to: http://libint.valeyev.net

 Your ORCA version has been built with support for libXC version: 7.0.0
 For citations please refer to: https://libxc.gitlab.io

 This ORCA versions uses:
   CBLAS   interface :  Fast vector & matrix operations
   LAPACKE interface :  Fast linear algebra routines
   SCALAPACK package :  Parallel linear algebra routines
   Shared memory     :  Shared parallel matrices
   BLAS/LAPACK       :  OpenBLAS 0.3.29  USE64BITINT DYNAMIC_ARCH NO_AFFINITY Zen SINGLE_THREADED
        Core in use  :  Zen
   Copyright (c) 2011-2014, The OpenBLAS Project


  ***********************************
  * Starting time: Tue Mar 10 13:33:21 2026
  * Host name:     d2-19
  * Process ID:    721443
  * Working dir.:  /home/avcopan/proj/project-cyclopentane/code/oh-addition/calc/cyC5e1/RH+OH-c4
  ***********************************

NOTE: MaxCore=6000 MB was set to SCF,MP2,MDCI,CIPSI,MRCI,RASCI and CIS
      => If you want to overwrite this, your respective input block should be placed after the MaxCore statement


***************************************
The coordinates will be read from file: path_init_back.xyz
***************************************


Your calculation utilizes the atom-pairwise dispersion correction
based on EEQ partial charges (D4)


Warning: RI is on but no J-basis has been assigned. Assigning Def2/J (nothing to worry about!)
================================================================================

----- Orbital basis set information -----
Your calculation utilizes the basis: def2-TZVPP
   F. Weigend and R. Ahlrichs, Phys. Chem. Chem. Phys. 7, 3297 (2005).

----- AuxJ basis set information -----
Your calculation utilizes the auxiliary basis: def2/J
   H-Rn: F. Weigend, Phys. Chem. Chem. Phys. 8, 1057 (2006).
   Fr-Lr: K. Eichkorn, F. Weigend, O. Treutler, R. Ahlrichs; Theor. Chem. Acc. 97, 119 (1997).

----- AuxC basis set information -----
Your calculation utilizes the auxiliary basis: def2-TZVPP/C
  H-La, Hf-Rn : A. Hellweg, C. Hattig, S. Hofener and W. Klopper, Theor. Chem. Acc. 117, 587 (2007).
        Ce-Lu : J. Chmela and M. E. Harding, Mol. Phys. (2018).

================================================================================
                                        WARNINGS
                       Please study these warnings very carefully!
================================================================================


WARNING: your system is open-shell and RHF/RKS was chosen
  ===> : WILL SWITCH to UHF/UKS


WARNING: The frozen-core approximation for MP2-gradient calculations is turned on by default.

WARNING: The environment variable RSH_COMMAND is not set!
  ===> : All Displacements for the Numerical Hessian or Gradient calculation
         will be started on localhost

WARNING: Geometry Optimization
  ===> : Switching off AutoStart
         For restart on a previous wavefunction, please use MOREAD

WARNING: The frozen-core approximation is turned on by default for 
         the MP2 part of double-hybrid DFT.

================================================================================
                                       INPUT FILE
================================================================================
NAME = path_back.inp
|  1> % MaxCore 6000
|  2> ! PAL8
|  3> ! REVDSD-PBEP86-D4/2021 def2-TZVPP def2-TZVPP/c
|  4> ! VeryTightSCF DefGrid3
|  5> ! Opt
|  6> ! NumFreq
|  7> %geom
|  8>    MaxIter        500
|  9>    Convergence    Tight
| 10> end
| 11> * xyzfile 0 2 path_init_back.xyz
| 12> 
| 13>                          ****END OF INPUT****
================================================================================

                       *****************************
                       * Geometry Optimization Run *
                       *****************************

Geometry optimization settings:
Update method            Update   .... BFGS
Choice of coordinates    CoordSys .... (2022) Redundant Internals
Initial Hessian          InHess   .... Almloef's Model
Max. no of cycles        MaxIter  .... 500

Convergence Tolerances:
Energy Change            TolE     ....  1.0000e-06 Eh
Max. Gradient            TolMAXG  ....  1.0000e-04 Eh/bohr
RMS Gradient             TolRMSG  ....  3.0000e-05 Eh/bohr
Max. Displacement        TolMAXD  ....  1.0000e-03 bohr
RMS Displacement         TolRMSD  ....  6.0000e-04 bohr
Strict Convergence                .... False

------------------------------------------------------------------------------
                        ORCA OPTIMIZATION COORDINATE SETUP
------------------------------------------------------------------------------

The optimization will be done in redundant internal coordinates (2022)
Making redundant internal coordinates   ...  (2022 redundants) done
Evaluating the initial hessian          ...  (Almloef) done
Evaluating the coordinates              ...  done
Calculating the B-matrix                .... done
Calculating the G-matrix                .... done
The number of degrees of freedom        ....   78

    -----------------------------------------------------------------
                    Redundant Internal Coordinates


    -----------------------------------------------------------------
         Definition                    Initial Value    Approx d2E/dq
    -----------------------------------------------------------------
      1. B(C   1,C   0)                  1.3361         0.761729   
      2. B(H   2,C   0)                  1.0807         0.372647   
      3. B(C   3,C   1)                  1.5105         0.401337   
      4. B(H   4,C   1)                  1.0829         0.369660   
      5. B(C   5,C   3)                  1.5418         0.357703   
      6. B(H   6,C   3)                  1.0951         0.353362   
      7. B(H   7,C   3)                  1.0928         0.356403   
      8. B(C   8,C   5)                  1.5346         0.367352   
      9. B(C   8,C   0)                  1.4976         0.420811   
     10. B(H   9,C   5)                  1.0915         0.358062   
     11. B(H  10,C   5)                  1.0921         0.357269   
     12. B(H  11,C   8)                  1.1455         0.293654   
     13. B(H  12,C   8)                  1.0912         0.358543   
     14. B(O  13,H  11)                  1.4940         0.073128   
     15. B(H  14,O  13)                  0.9793         0.484434   
     16. B(H  14,H  11)                  1.8365         0.010000   
     17. A(H   2,C   0,C   8)          123.0775         0.332628   
     18. A(C   1,C   0,H   2)          125.6182         0.367649   
     19. A(C   1,C   0,C   8)          111.2329         0.420166   
     20. A(C   0,C   1,H   4)          124.5922         0.367142   
     21. A(C   3,C   1,H   4)          123.6422         0.329591   
     22. A(C   0,C   1,C   3)          111.7416         0.416633   
     23. A(C   1,C   3,H   6)          110.2849         0.327148   
     24. A(C   5,C   3,H   6)          111.2522         0.321024   
     25. A(C   1,C   3,C   5)          102.9088         0.365112   
     26. A(H   6,C   3,H   7)          106.8084         0.289509   
     27. A(C   5,C   3,H   7)          112.6193         0.321474   
     28. A(C   1,C   3,H   7)          113.0392         0.327610   
     29. A(C   3,C   5,H   9)          113.0070         0.321719   
     30. A(C   3,C   5,C   8)          104.8363         0.359638   
     31. A(C   8,C   5,H  10)          108.6558         0.323007   
     32. A(C   3,C   5,H  10)          109.5382         0.321602   
     33. A(C   8,C   5,H   9)          112.8519         0.323125   
     34. A(H   9,C   5,H  10)          107.8545         0.290221   
     35. A(C   0,C   8,C   5)          103.8453         0.369776   
     36. A(H  11,C   8,H  12)          104.2240         0.281544   
     37. A(C   5,C   8,H  12)          114.8131         0.323196   
     38. A(C   0,C   8,H  12)          115.4760         0.330510   
     39. A(C   5,C   8,H  11)          109.1560         0.312849   
     40. A(C   0,C   8,H  11)          109.2455         0.319839   
     41. A(O  13,H  11,H  14)           32.1545         0.130119   
     42. A(C   8,H  11,H  14)          133.5470         0.145988   
     43. A(C   8,H  11,O  13)          162.9933         0.221789   
     44. A(H  11,O  13,H  14)           93.5612         0.235986   
     45. A(H  11,H  14,O  13)           54.2843         0.152081   
     46. D(H   4,C   1,C   0,H   2)     -0.6975         0.041505   
     47. D(H   4,C   1,C   0,C   8)   -177.6899         0.041505   
     48. D(C   3,C   1,C   0,H   2)    177.5696         0.041505   
     49. D(C   3,C   1,C   0,C   8)      0.5773         0.041505   
     50. D(C   5,C   3,C   1,H   4)   -167.9361         0.011950   
     51. D(H   6,C   3,C   1,C   0)   -104.9846         0.011950   
     52. D(H   7,C   3,C   1,C   0)    135.5299         0.011950   
     53. D(H   6,C   3,C   1,H   4)     73.3019         0.011950   
     54. D(C   5,C   3,C   1,C   0)     13.7774         0.011950   
     55. D(H   9,C   5,C   3,H   6)    -27.0696         0.010275   
     56. D(C   8,C   5,C   3,H   7)   -143.8960         0.010275   
     57. D(C   8,C   5,C   3,H   6)     96.2247         0.010275   
     58. D(C   8,C   5,C   3,C   1)    -21.8595         0.010275   
     59. D(H   9,C   5,C   3,H   7)     92.8097         0.010275   
     60. D(H   9,C   5,C   3,C   1)   -145.1538         0.010275   
     61. D(H  11,C   8,C   5,H  10)    148.9237         0.010797   
     62. D(H  11,C   8,C   5,H   9)     29.3561         0.010797   
     63. D(H  11,C   8,C   5,C   3)    -94.0379         0.010797   
     64. D(C   0,C   8,C   5,H   9)    145.7791         0.010797   
     65. D(C   0,C   8,C   5,C   3)     22.3852         0.010797   
     66. D(H  12,C   8,C   0,C   1)   -141.4015         0.013093   
     67. D(C   0,C   8,C   5,H  10)    -94.6533         0.010797   
     68. D(H  11,C   8,C   0,H   2)    -75.5253         0.013093   
     69. D(H  11,C   8,C   0,C   1)    101.5569         0.013093   
     70. D(C   5,C   8,C   0,H   2)    168.1145         0.013093   
     71. D(C   5,C   8,C   0,C   1)    -14.8033         0.013093   
     72. D(H  14,H  11,C   8,C   0)    -19.4592         0.081124   
     73. D(O  13,H  11,C   8,H  12)   -171.0559         0.081124   
     74. D(O  13,H  11,C   8,C   5)     65.8262         0.081124   
     75. D(H  14,H  11,C   8,C   5)     93.4706         0.081124   
     76. D(O  13,H  11,C   8,C   0)    -47.1036         0.081124   
     77. D(H  14,O  13,H  11,C   8)     39.1904         0.010000   
     78. D(O  13,H  14,H  11,C   8)   -165.2269         0.010000   
    -----------------------------------------------------------------

Number of atoms                         .... 15
Number of degrees of freedom            .... 78


         *************************************************************
         *                GEOMETRY OPTIMIZATION CYCLE   1            *
         *************************************************************
---------------------------------
CARTESIAN COORDINATES (ANGSTROEM)
---------------------------------
  C     -0.336224    1.191592    0.486843
  C     -1.258262    0.886707   -0.430730
  H     -0.092358    2.187874    0.827158
  C     -1.299390   -0.596958   -0.711118
  H     -1.883285    1.610734   -0.938404
  C     -0.483773   -1.190592    0.454888
  H     -0.828783   -0.814226   -1.675825
  H     -2.315935   -0.995224   -0.758580
  C      0.390885   -0.032029    0.952501
  H      0.098490   -2.067303    0.165375
  H     -1.159913   -1.488353    1.259227
  H      1.412286   -0.083597    0.436450
  H      0.626790   -0.061002    2.017481
  O      2.496196   -0.063346   -0.591469
  H      2.106238    0.692928   -1.076173

----------------------------
CARTESIAN COORDINATES (A.U.)
----------------------------
  NO LB      ZA    FRAG     MASS         X           Y           Z
   0 C     6.0000    0    12.011   -0.635371    2.251783    0.920000
   1 C     6.0000    0    12.011   -2.377771    1.675633   -0.813962
   2 H     1.0000    0     1.008   -0.174531    4.134483    1.563102
   3 C     6.0000    0    12.011   -2.455491   -1.128087   -1.343818
   4 H     1.0000    0     1.008   -3.558893    3.043846   -1.773327
   5 C     6.0000    0    12.011   -0.914198   -2.249893    0.859614
   6 H     1.0000    0     1.008   -1.566173   -1.538664   -3.166850
   7 H     1.0000    0     1.008   -4.376483   -1.880701   -1.433508
   8 C     6.0000    0    12.011    0.738666   -0.060526    1.799966
   9 H     1.0000    0     1.008    0.186119   -3.906637    0.312513
  10 H     1.0000    0     1.008   -2.191918   -2.812580    2.379594
  11 H     1.0000    0     1.008    2.668834   -0.157975    0.824771
  12 H     1.0000    0     1.008    1.184461   -0.115277    3.812487
  13 O     8.0000    0    15.999    4.717127   -0.119707   -1.117714
  14 H     1.0000    0     1.008    3.980213    1.309444   -2.033672

--------------------------------
INTERNAL COORDINATES (ANGSTROEM)
--------------------------------
 C      0   0   0     0.000000000000     0.00000000     0.00000000
 C      1   0   0     1.336057314264     0.00000000     0.00000000
 H      1   2   0     1.080676986294   125.61819930     0.00000000
 C      2   1   3     1.510486933129   111.74157428   177.56961985
 H      2   1   3     1.082867368395   124.59215897   359.30247491
 C      4   2   1     1.541817890894   102.90880734    13.77739301
 H      4   2   1     1.095141967108   110.28485691   255.01535187
 H      4   2   1     1.092809308720   113.03921377   135.52987170
 C      1   2   3     1.497589136741   111.23292095   183.00766853
 H      6   4   2     1.091544848304   113.00698973   214.84622784
 H      6   4   2     1.092148405503   109.53821320    94.57245873
 H      9   1   2     1.145525161673   109.24552087   101.55693156
 H      9   1   2     1.091179638810   115.47600343   218.59848965
 O     12   9   1     1.493950622230   162.99327502   312.89639468
 H     14  12   9     0.979262769871    93.56121927    39.19040989

---------------------------
INTERNAL COORDINATES (A.U.)
---------------------------
 C      0   0   0     0.000000000000     0.00000000     0.00000000
 C      1   0   0     2.524782423181     0.00000000     0.00000000
 H      1   2   0     2.042183543327   125.61819930     0.00000000
 C      2   1   3     2.854406632480   111.74157428   177.56961985
 H      2   1   3     2.046322765626   124.59215897   359.30247491
 C      4   2   1     2.913613562170   102.90880734    13.77739301
 H      4   2   1     2.069518395599   110.28485691   255.01535187
 H      4   2   1     2.065110310081   113.03921377   135.52987170
 C      1   2   3     2.830033329577   111.23292095   183.00766853
 H      6   4   2     2.062720826187   113.00698973   214.84622784
 H      6   4   2     2.063861383999   109.53821320    94.57245873
 H      9   1   2     2.164728835078   109.24552087   101.55693156
 H      9   1   2     2.062030680262   115.47600343   218.59848965
 O     12   9   1     2.823157533616   162.99327502   312.89639468
 H     14  12   9     1.850538448202    93.56121927    39.19040989

---------------------
BASIS SET INFORMATION
---------------------
There are 3 groups of distinct atoms

 Group   1 Type C   : 11s6p2d1f contracted to 5s3p2d1f pattern {62111/411/11/1}
 Group   2 Type H   : 5s2p1d contracted to 3s2p1d pattern {311/11/1}
 Group   3 Type O   : 11s6p2d1f contracted to 5s3p2d1f pattern {62111/411/11/1}

Atom   0C    basis set group =>   1
Atom   1C    basis set group =>   1
Atom   2H    basis set group =>   2
Atom   3C    basis set group =>   1
Atom   4H    basis set group =>   2
Atom   5C    basis set group =>   1
Atom   6H    basis set group =>   2
Atom   7H    basis set group =>   2
Atom   8C    basis set group =>   1
Atom   9H    basis set group =>   2
Atom  10H    basis set group =>   2
Atom  11H    basis set group =>   2
Atom  12H    basis set group =>   2
Atom  13O    basis set group =>   3
Atom  14H    basis set group =>   2
---------------------------------
AUXILIARY/J BASIS SET INFORMATION
---------------------------------
There are 3 groups of distinct atoms

 Group   1 Type C   : 12s5p4d2f1g contracted to 6s4p3d1f1g pattern {711111/2111/211/2/1}
 Group   2 Type H   : 5s2p1d contracted to 3s1p1d pattern {311/2/1}
 Group   3 Type O   : 12s5p4d2f1g contracted to 6s4p3d1f1g pattern {711111/2111/211/2/1}

Atom   0C    basis set group =>   1
Atom   1C    basis set group =>   1
Atom   2H    basis set group =>   2
Atom   3C    basis set group =>   1
Atom   4H    basis set group =>   2
Atom   5C    basis set group =>   1
Atom   6H    basis set group =>   2
Atom   7H    basis set group =>   2
Atom   8C    basis set group =>   1
Atom   9H    basis set group =>   2
Atom  10H    basis set group =>   2
Atom  11H    basis set group =>   2
Atom  12H    basis set group =>   2
Atom  13O    basis set group =>   3
Atom  14H    basis set group =>   2
---------------------------------
AUXILIARY/C BASIS SET INFORMATION
---------------------------------
There are 3 groups of distinct atoms

 Group   1 Type C   : 8s6p5d3f1g contracted to 8s6p4d3f1g pattern {11111111/111111/2111/111/1}
 Group   2 Type H   : 4s3p2d1f contracted to 4s3p2d1f pattern {1111/111/11/1}
 Group   3 Type O   : 8s6p5d3f1g contracted to 8s6p4d3f1g pattern {11111111/111111/2111/111/1}

Atom   0C    basis set group =>   1
Atom   1C    basis set group =>   1
Atom   2H    basis set group =>   2
Atom   3C    basis set group =>   1
Atom   4H    basis set group =>   2
Atom   5C    basis set group =>   1
Atom   6H    basis set group =>   2
Atom   7H    basis set group =>   2
Atom   8C    basis set group =>   1
Atom   9H    basis set group =>   2
Atom  10H    basis set group =>   2
Atom  11H    basis set group =>   2
Atom  12H    basis set group =>   2
Atom  13O    basis set group =>   3
Atom  14H    basis set group =>   2


           ************************************************************
           *        Program running with 8 parallel MPI-processes     *
           *              working on a common directory               *
           ************************************************************
------------------------------------------------------------------------------
                             ORCA STARTUP CALCULATIONS
                           -- RI-GTO INTEGRALS CHOSEN --
------------------------------------------------------------------------------
------------------------------------------------------------------------------
                   ___                                                        
                  /   \      - P O W E R E D   B Y -                         
                 /     \                                                     
                 |  |  |   _    _      __       _____    __    __             
                 |  |  |  | |  | |    /  \     |  _  \  |  |  /  |          
                  \  \/   | |  | |   /    \    | | | |  |  | /  /          
                 / \  \   | |__| |  /  /\  \   | |_| |  |  |/  /          
                |  |  |   |  __  | /  /__\  \  |    /   |      \           
                |  |  |   | |  | | |   __   |  |    \   |  |\   \          
                \     /   | |  | | |  |  |  |  | |\  \  |  | \   \       
                 \___/    |_|  |_| |__|  |__|  |_| \__\ |__|  \__/        
                                                                              
                      - O R C A' S   B I G   F R I E N D -                    
                                      &                                       
                       - I N T E G R A L  F E E D E R -                       
                                                                              
 v1 FN, 2020, v2 2021, v3 2022-2024                                           
------------------------------------------------------------------------------


----------------------
SHARK INTEGRAL PACKAGE
----------------------

Number of atoms                             ...     15
Number of basis functions                   ...    312
Number of shells                            ...    120
Maximum angular momentum                    ...      3
Integral batch strategy                     ... SHARK/LIBINT Hybrid
RI-J (if used) integral strategy            ... SPLIT-RIJ (Revised 2003 algorithm where possible)
Printlevel                                  ...      1
Contraction scheme used                     ... SEGMENTED contraction
Prescreening option                         ... SCHWARTZ
   Thresh                                   ... 1.000e-12
   Tcut                                     ... 1.000e-14
   Tpresel                                  ... 1.000e-14 
Coulomb Range Separation                    ... NOT USED
Exchange Range Separation                   ... NOT USED
Multipole approximations                    ... NOT USED
Finite Nucleus Model                        ... NOT USED
CABS basis                                  ... NOT available
Auxiliary Coulomb fitting basis             ... AVAILABLE
   # of basis functions in Aux-J            ...    393
   # of shells in Aux-J                     ...    135
   Maximum angular momentum in Aux-J        ...      4
Auxiliary J/K fitting basis                 ... NOT available
Auxiliary Correlation fitting basis         ... AVAILABLE
   # of basis functions in Aux-C            ...    726
   # of shells in Aux-C                     ...    222
   Maximum angular momentum in Aux-C        ...      4
Auxiliary 'external' fitting basis          ... NOT available

Checking pre-screening integrals            ... done (  0.0 sec) Dimension = 120
   => SHARK Basis and OBASIS are compatible. Storing Pre-screening
Shell pair information
Shell pair cut-off parameter TPreSel        ...   1.0e-14
Total number of shell pairs                 ...      7260
Shell pairs after pre-screening             ...      6939
Total number of primitive shell pairs       ...     18687
Primitive shell pairs kept                  ...     14528
          la=0 lb=0:   1546 shell pairs
          la=1 lb=0:   1959 shell pairs
          la=1 lb=1:    648 shell pairs
          la=2 lb=0:   1139 shell pairs
          la=2 lb=1:    735 shell pairs
          la=2 lb=2:    225 shell pairs
          la=3 lb=0:    330 shell pairs
          la=3 lb=1:    213 shell pairs
          la=3 lb=2:    123 shell pairs
          la=3 lb=3:     21 shell pairs

Checking whether 4 symmetric matrices of dimension 312 fit in memory
:Max Core in MB      =   6000.00
 MB in use           =     11.99
 MB left             =   5988.01
 MB needed           =      1.49
 Data fit in memory  = YES
Calculating RI/J V-Matrix + Cholesky decomp.... done (  0.1 sec)
Calculating RI/C V-Matrix + Cholesky decomp.... done (  0.2 sec)
Calculating Nuclear repulsion               ... done (  0.0 sec) ENN=    230.979062497296 Eh

Diagonalization of the overlap matrix:
Smallest eigenvalue                        ... 7.734e-05
Time for diagonalization                   ...    0.018 sec
Threshold for overlap eigenvalues          ... 1.000e-07
Number of eigenvalues below threshold      ... 0
Time for construction of square roots      ...    0.243 sec
Total time needed                          ...    0.327 sec

-------------------
DFT GRID GENERATION
-------------------

General Integration Accuracy     IntAcc      ... 4.959
Radial Grid Type                 RadialGrid  ... OptM3 with GC (2021)
Angular Grid (max. ang.)         AngularGrid ... 6 (Lebedev-590)
Angular grid pruning method      GridPruning ... 4 (adaptive)
Weight generation scheme         WeightScheme... mBecke (2022)
Basis function cutoff            BFCut       ... 1.0000e-12
Integration weight cutoff        WCut        ... 1.0000e-14
Partially contracted basis set               ... off
Rotationally invariant grid construction     ... off
Angular grids for H and He will be reduced by one unit

Total number of grid points                  ...   164400
Total number of batches                      ...     2578
Average number of points per batch           ...       63
Average number of grid points per atom       ...    10960

--------------------
COSX GRID GENERATION
--------------------

GRIDX 1
-------
General Integration Accuracy     IntAcc      ... 4.020
Radial Grid Type                 RadialGrid  ... OptM3 with GC (2021)
Angular Grid (max. ang.)         AngularGrid ... 2 (Lebedev-110)
Angular grid pruning method      GridPruning ... 4 (adaptive)
Weight generation scheme         WeightScheme... mBecke (2022)
Basis function cutoff            BFCut       ... 1.0000e-12
Integration weight cutoff        WCut        ... 1.0000e-14
Partially contracted basis set               ... on
Rotationally invariant grid construction     ... off
Angular grids for H and He will be reduced by one unit

Total number of grid points                  ...    17687
Total number of batches                      ...      145
Average number of points per batch           ...      121
Average number of grid points per atom       ...     1179
UseSFitting                                  ... on

GRIDX 2
-------
General Integration Accuracy     IntAcc      ... 4.338
Radial Grid Type                 RadialGrid  ... OptM3 with GC (2021)
Angular Grid (max. ang.)         AngularGrid ... 3 (Lebedev-194)
Angular grid pruning method      GridPruning ... 4 (adaptive)
Weight generation scheme         WeightScheme... mBecke (2022)
Basis function cutoff            BFCut       ... 1.0000e-12
Integration weight cutoff        WCut        ... 1.0000e-14
Partially contracted basis set               ... on
Rotationally invariant grid construction     ... off
Angular grids for H and He will be reduced by one unit

Total number of grid points                  ...    38716
Total number of batches                      ...      310
Average number of points per batch           ...      124
Average number of grid points per atom       ...     2581
UseSFitting                                  ... on

GRIDX 3
-------
General Integration Accuracy     IntAcc      ... 4.871
Radial Grid Type                 RadialGrid  ... OptM3 with GC (2021)
Angular Grid (max. ang.)         AngularGrid ... 4 (Lebedev-302)
Angular grid pruning method      GridPruning ... 4 (adaptive)
Weight generation scheme         WeightScheme... mBecke (2022)
Basis function cutoff            BFCut       ... 1.0000e-12
Integration weight cutoff        WCut        ... 1.0000e-14
Partially contracted basis set               ... on
Rotationally invariant grid construction     ... off
Angular grids for H and He will be reduced by one unit

Total number of grid points                  ...    75835
Total number of batches                      ...      600
Average number of points per batch           ...      126
Average number of grid points per atom       ...     5056
UseSFitting                                  ... on
Grids setup in   5.7 sec
Initializing property integral containers    ... done (  0.2 sec)

SHARK setup successfully completed in   7.6 seconds

Maximum memory used throughout the entire STARTUP-calculation: 41.9 MB


           ************************************************************
           *        Program running with 8 parallel MPI-processes     *
           *              working on a common directory               *
           ************************************************************
-------------------------------------------------------------------------------
                                 ORCA GUESS
                   Start orbitals & Density for SCF / CASSCF
-------------------------------------------------------------------------------

------------
SCF SETTINGS
------------
Hamiltonian:
 Density Functional     Method          .... DFT(GTOs)
 Exchange Functional    Exchange        .... PBE
   PBE kappa parameter   XKappa         ....  0.804000
   PBE mue parameter    XMuePBE         ....  0.219520
 Correlation Functional Correlation     .... P86
 LDA part of GGA corr.  LDAOpt          .... VWN-5
 Gradients option       PostSCFGGA      .... off
 Hybrid DFT is turned on
   Fraction HF Exchange ScalHFX         ....  0.690000
   Scaling of DF-GGA-X  ScalDFX         ....  0.310000
   Scaling of DF-GGA-C  ScalDFC         ....  0.422400
   Scaling of DF-LDA-C  ScalLDAC        ....  0.422400
   Perturbative correction              ....  1.000000
 RI-approximation to the Coulomb term is turned on
   Number of AuxJ basis functions       .... 393
   RIJ-COSX (HFX calculated with COS-X)).... on


General Settings:
 Integral files         IntName         .... path_back
 Hartree-Fock type      HFTyp           .... UHF
 Total Charge           Charge          ....    0
 Multiplicity           Mult            ....    2
 Number of Electrons    NEL             ....   47
 Basis Dimension        Dim             ....  312
 Nuclear Repulsion      ENuc            ....    230.9790624973 Eh

Convergence Acceleration:
 AO-DIIS                CNVDIIS         .... on
   Start iteration      DIISMaxIt       ....    12
   Startup error        DIISStart       ....  0.200000
   # of expansion vecs  DIISMaxEq       ....     5
   Bias factor          DIISBfac        ....   1.050
   Max. coefficient     DIISMaxC        ....  10.000
 MO-DIIS                CNVKDIIS        .... off
 Trust-Rad. Augm. Hess. CNVTRAH         .... auto
   Auto Start mean grad. ratio tolernc. ....  1.125000
   Auto Start start iteration           ....    50
   Auto Start num. interpolation iter.  ....    10
   Max. Number of Micro iterations      ....    24
   Max. Number of Macro iterations      .... Maxiter - #DIIS iter
   Number of Davidson start vectors     ....     2
   Converg. threshold    (grad. norm)   ....   2.000e-06
   Grad. Scal. Fac. for Micro threshold ....   0.100
   Minimum threshold for Micro iter.    ....   1.000e-02
   NR start threshold (gradient norm)   ....   1.000e-04
   Initial trust radius                 ....   0.400
   Minimum AH scaling param. (alpha)    ....   1.000
   Maximum AH scaling param. (alpha)    .... 1000.000
   Quad. conv. algorithm                .... NR
   White noise on init. David. guess    .... on
   Maximum white noise                  ....   0.010
   Pseudo random numbers                .... off
   Inactive MOs                         .... canonical
   Orbital update algorithm             .... Taylor
   Preconditioner                       .... Diag
   Full preconditioner red. dimension   ....   250
 SOSCF                 CNVSOSCF           .... on
   Start iteration     SOSCFMaxIt         ....   150
   Startup grad/error  SOSCFStart         ....  0.003300
   Hessian update      SOSCFHessUp        .... L-BFGS
   Autom. constraints  SOSCFAutoConstrain .... off
 Level Shifting         CNVShift        .... on
   Level shift para.    LevelShift      ....    0.2500
   Turn off err/grad.   ShiftErr        ....    0.0010
 Zerner damping         CNVZerner       .... off
 Static damping         CNVDamp         .... on
   Fraction old density DampFac         ....    0.7000
   Max. Damping (<1)    DampMax         ....    0.9800
   Min. Damping (>=0)   DampMin         ....    0.0000
   Turn off err/grad.   DampErr         ....    0.1000

SCF Procedure:
 Maximum # iterations   MaxIter         ....   125
 SCF integral mode      SCFMode         .... Direct
   Integral package                     .... SHARK and LIBINT hybrid scheme
 Reset frequency        DirectResetFreq ....    20
 Integral Threshold     Thresh          ....  1.000e-12 Eh
 Primitive CutOff       TCut            ....  1.000e-14 Eh

Convergence Tolerance:
 Convergence Check Mode ConvCheckMode   .... Total+1el-Energy
 Convergence forced     ConvForced      .... 0
 Energy Change          TolE            ....  1.000e-09 Eh
 1-El. energy change                    ....  1.000e-06 Eh
 Orbital Gradient       TolG            ....  2.000e-06
 Orbital Rotation angle TolX            ....  2.000e-06
 DIIS Error             TolErr          ....  1.000e-08

------------------------------
INITIAL GUESS: MODEL POTENTIAL
------------------------------
Loading Hartree-Fock densities                     ... done
Calculating cut-offs                               ... done
Initializing the effective Hamiltonian             ... done
Setting up the integral package (SHARK)            ... done
Starting the Coulomb interaction                   ... done (   0.2 sec)
Making the grid                                    ... done (   0.5 sec)
Mapping shells                                     ... done
Starting the XC term evaluation                    ... done (   0.1 sec)
  promolecular density results
     # of electrons  =     46.990292887
     EX              =    -36.317080320
     EC              =      0.020543490
     EX+EC           =    -36.296536830
Transforming the Hamiltonian                       ... done (   0.1 sec)
Diagonalizing the Hamiltonian                      ... done (   0.0 sec)
Back transforming the eigenvectors                 ... done (   0.0 sec)
Now organizing SCF variables                       ... done
                      ------------------
                      INITIAL GUESS DONE (   1.0 sec)
                      ------------------
             **** ENERGY FILE WAS UPDATED (path_back.en.tmp) ****
Finished Guess after   3.6 sec
Maximum memory used throughout the entire GUESS-calculation: 18.0 MB


           ************************************************************
           *        Program running with 8 parallel MPI-processes     *
           *              working on a common directory               *
           ************************************************************

-------------------------------------------------------------------------------------------
                                      ORCA LEAN-SCF
                              memory conserving SCF solver
-------------------------------------------------------------------------------------------

----------------------------------------D-I-I-S--------------------------------------------
Iteration    Energy (Eh)           Delta-E    RMSDP     MaxDP     DIISErr   Damp  Time(sec)
-------------------------------------------------------------------------------------------
               ***  Starting incremental Fock matrix formation  ***
    1    -269.8226939214110871     0.00e+00  2.01e-03  5.09e-02  1.66e-01  0.700   6.5
    2    -269.9183801099391076    -9.57e-02  1.54e-03  4.02e-02  8.05e-02  0.700   5.5
                               ***Turning on AO-DIIS***
    3    -269.9672134635910652    -4.88e-02  6.14e-04  8.22e-03  3.27e-02  0.700   5.3
    4    -269.9985163060687228    -3.13e-02  1.67e-03  3.45e-02  2.34e-02  0.000   5.1
    5    -270.0793896642675236    -8.09e-02  8.58e-04  2.58e-02  1.44e-02  0.000   6.4
    6    -270.0860712217479431    -6.68e-03  9.30e-04  2.44e-02  1.01e-02  0.000   5.2
    7    -270.0915283403128342    -5.46e-03  5.16e-04  1.08e-02  8.01e-03  0.000   4.7
    8    -270.0941755055665681    -2.65e-03  4.43e-04  8.45e-03  4.54e-03  0.000   5.0
                              *** Initializing SOSCF ***
---------------------------------------S-O-S-C-F--------------------------------------
Iteration    Energy (Eh)           Delta-E    RMSDP     MaxDP     MaxGrad    Time(sec)
--------------------------------------------------------------------------------------
    9    -270.0955146464521022    -1.34e-03  2.54e-04  3.70e-03  3.22e-03     5.9
               *** Restarting incremental Fock matrix formation ***
   10    -270.0960546134602964    -5.40e-04  1.69e-04  2.80e-03  5.84e-03     7.2
   11    -270.0962455328012766    -1.91e-04  2.68e-04  3.62e-03  2.35e-03     6.1
   12    -270.0963457603794495    -1.00e-04  4.92e-05  6.78e-04  7.85e-04     6.5
   13    -270.0963678313182754    -2.21e-05  3.29e-05  3.60e-04  5.43e-04     6.0
   14    -270.0963758296787773    -8.00e-06  3.98e-05  4.84e-04  3.03e-04     5.6
   15    -270.0963818100804019    -5.98e-06  2.48e-05  3.65e-04  2.30e-04     5.3
   16    -270.0963845678867301    -2.76e-06  3.18e-05  4.68e-04  2.41e-04     5.4
   17    -270.0963872666144425    -2.70e-06  1.57e-05  2.28e-04  2.75e-04     5.5
   18    -270.0963882642223552    -9.98e-07  7.54e-06  1.04e-04  1.86e-04     5.1
   19    -270.0963885521225620    -2.88e-07  3.75e-06  5.57e-05  7.95e-05     5.3
   20    -270.0963886558420199    -1.04e-07  1.88e-06  2.27e-05  2.76e-05     5.1
   21    -270.0963886837918153    -2.79e-08  1.19e-06  1.76e-05  2.33e-05     5.9
   22    -270.0963886913865508    -7.59e-09  1.06e-06  2.27e-05  1.93e-05     5.5
   23    -270.0963886965737402    -5.19e-09  1.90e-06  4.66e-05  1.57e-05     5.4
   24    -270.0963887044787270    -7.90e-09  1.79e-06  4.72e-05  9.37e-06     6.2
   25    -270.0963887105153844    -6.04e-09  1.24e-06  3.22e-05  5.19e-06     6.2
   26    -270.0963887135733330    -3.06e-09  4.43e-07  1.16e-05  2.54e-06     5.2
   27    -270.0963887143579996    -7.85e-10  1.69e-07  4.03e-06  8.08e-07     4.8
                 **** Energy Check signals convergence ****

               *****************************************************
               *                     SUCCESS                       *
               *           SCF CONVERGED AFTER  27 CYCLES          *
               *****************************************************

Recomputing exchange energy using gridx3       ... done (    5.948 sec)
Old exchange energy                            :    -25.777775799 Eh
New exchange energy                            :    -25.777779523 Eh
Exchange energy change after final integration :     -0.000003724 Eh
Total energy after final integration           :   -270.096392439 Eh
             **** ENERGY FILE WAS UPDATED (path_back.en.tmp) ****

----------------
TOTAL SCF ENERGY
----------------

Total Energy       :       -270.09639243855690 Eh           -7349.69649 eV

Components:
Nuclear Repulsion  :        230.97906249729564 Eh            6285.25983 eV
Electronic Energy  :       -501.07545121157858 Eh          -13634.95622 eV
One Electron Energy:       -823.50055998588732 Eh          -22408.58947 eV
Two Electron Energy:        322.42510877430874 Eh            8773.63325 eV

Virial components:
Potential Energy   :       -539.52239945207452 Eh          -14681.15086 eV
Kinetic Energy     :        269.42600701351762 Eh            7331.45437 eV
Virial Ratio       :          2.00248819864300

DFT components:
N(Alpha)           :       24.000001214261 electrons
N(Beta)            :       23.000001002997 electrons
N(Total)           :       47.000002217257 electrons
E(X)               :      -11.523569965957 Eh       
E(C)               :       -0.711125691669 Eh       
E(XC)              :      -12.234695657625 Eh       

---------------
SCF CONVERGENCE
---------------

  Last Energy change         ...    7.8467e-10  Tolerance :   1.0000e-09
  Last MAX-Density change    ...    4.0309e-06  Tolerance :   1.0000e-08
  Last RMS-Density change    ...    1.6870e-07  Tolerance :   1.0000e-09
  Last DIIS Error            ...    3.2217e-03  Tolerance :   1.0000e-08
  Last Orbital Gradient      ...    8.0822e-07  Tolerance :   2.0000e-06
  Last Orbital Rotation      ...    9.8220e-06  Tolerance :   2.0000e-06


----------------------
UHF SPIN CONTAMINATION
----------------------

Warning: in a DFT calculation there is little theoretical justification to 
         calculate <S**2> as in Hartree-Fock theory. We will do it anyways
         but you should keep in mind that the values have only limited relevance

Expectation value of <S**2>     :     0.774348
Ideal value S*(S+1) for S=0.5   :     0.750000
Deviation                       :     0.024348

----------------
ORBITAL ENERGIES
----------------
                 SPIN UP ORBITALS
  NO   OCC          E(Eh)            E(eV) 
   0   1.0000     -20.057597      -545.7950 
   1   1.0000     -10.817887      -294.3697 
   2   1.0000     -10.817804      -294.3674 
   3   1.0000     -10.813203      -294.2422 
   4   1.0000     -10.813001      -294.2367 
   5   1.0000     -10.808562      -294.1159 
   6   1.0000      -1.233707       -33.5709 
   7   1.0000      -1.031669       -28.0731 
   8   1.0000      -0.875209       -23.8157 
   9   1.0000      -0.870019       -23.6744 
  10   1.0000      -0.715192       -19.4614 
  11   1.0000      -0.661602       -18.0031 
  12   1.0000      -0.620605       -16.8875 
  13   1.0000      -0.606800       -16.5119 
  14   1.0000      -0.586219       -15.9518 
  15   1.0000      -0.554328       -15.0840 
  16   1.0000      -0.483589       -13.1591 
  17   1.0000      -0.472496       -12.8573 
  18   1.0000      -0.463923       -12.6240 
  19   1.0000      -0.445826       -12.1315 
  20   1.0000      -0.442741       -12.0476 
  21   1.0000      -0.430650       -11.7186 
  22   1.0000      -0.416041       -11.3211 
  23   1.0000      -0.306519        -8.3408 
  24   0.0000       0.086957         2.3662 
  25   0.0000       0.100797         2.7428 
  26   0.0000       0.121578         3.3083 
  27   0.0000       0.138640         3.7726 
  28   0.0000       0.143100         3.8940 
  29   0.0000       0.161217         4.3869 
  30   0.0000       0.169699         4.6177 
  31   0.0000       0.172436         4.6922 
  32   0.0000       0.200367         5.4523 
  33   0.0000       0.227647         6.1946 
  34   0.0000       0.248185         6.7534 

                 SPIN DOWN ORBITALS
  NO   OCC          E(Eh)            E(eV) 
   0   1.0000     -20.025838      -544.9308 
   1   1.0000     -10.816062      -294.3200 
   2   1.0000     -10.814680      -294.2824 
   3   1.0000     -10.813385      -294.2472 
   4   1.0000     -10.811744      -294.2025 
   5   1.0000     -10.808821      -294.1230 
   6   1.0000      -1.126359       -30.6498 
   7   1.0000      -1.027653       -27.9639 
   8   1.0000      -0.873802       -23.7774 
   9   1.0000      -0.860899       -23.4262 
  10   1.0000      -0.706081       -19.2134 
  11   1.0000      -0.656848       -17.8737 
  12   1.0000      -0.615682       -16.7536 
  13   1.0000      -0.575875       -15.6704 
  14   1.0000      -0.558552       -15.1990 
  15   1.0000      -0.488943       -13.3048 
  16   1.0000      -0.480863       -13.0849 
  17   1.0000      -0.444425       -12.0934 
  18   1.0000      -0.442727       -12.0472 
  19   1.0000      -0.433922       -11.8076 
  20   1.0000      -0.432107       -11.7582 
  21   1.0000      -0.423912       -11.5352 
  22   1.0000      -0.312699        -8.5090 
  23   0.0000      -0.008334        -0.2268 
  24   0.0000       0.092447         2.5156 
  25   0.0000       0.103564         2.8181 
  26   0.0000       0.123586         3.3630 
  27   0.0000       0.139478         3.7954 
  28   0.0000       0.143569         3.9067 
  29   0.0000       0.162216         4.4141 
  30   0.0000       0.170735         4.6459 
  31   0.0000       0.173946         4.7333 
  32   0.0000       0.201176         5.4743 
  33   0.0000       0.230921         6.2837 
*Only the first 10 virtual orbitals were printed.

                    ********************************
                    * MULLIKEN POPULATION ANALYSIS *
                    ********************************

--------------------------------------------
MULLIKEN ATOMIC CHARGES AND SPIN POPULATIONS
--------------------------------------------
   0 C :   -0.221326   -0.128147
   1 C :   -0.148536    0.145570
   2 H :    0.113267    0.007956
   3 C :   -0.087447   -0.015872
   4 H :    0.108047   -0.010513
   5 C :   -0.130732   -0.013143
   6 H :    0.069813    0.006581
   7 H :    0.074058    0.005076
   8 C :   -0.050962    0.230849
   9 H :    0.085168    0.004476
  10 H :    0.071871    0.009307
  11 H :    0.090473   -0.087653
  12 H :    0.081683   -0.001559
  13 O :   -0.297456    0.873480
  14 H :    0.242080   -0.026408
Sum of atomic charges         :   -0.0000000
Sum of atomic spin populations:    1.0000000

-----------------------------------------------------
MULLIKEN REDUCED ORBITAL CHARGES AND SPIN POPULATIONS
-----------------------------------------------------
CHARGE
  0 C s       :     3.198262  s :     3.198262
      pz      :     0.982742  p :     2.904660
      px      :     0.941185
      py      :     0.980732
      dz2     :     0.023935  d :     0.110485
      dxz     :     0.011384
      dyz     :     0.022942
      dx2y2   :     0.025854
      dxy     :     0.026370
      f0      :     0.000936  f :     0.007919
      f+1     :     0.001229
      f-1     :     0.000921
      f+2     :     0.001066
      f-2     :     0.001449
      f+3     :     0.000958
      f-3     :     0.001359

  1 C s       :     3.164479  s :     3.164479
      pz      :     0.959256  p :     2.867579
      px      :     0.963005
      py      :     0.945317
      dz2     :     0.021816  d :     0.108692
      dxz     :     0.012243
      dyz     :     0.025228
      dx2y2   :     0.023119
      dxy     :     0.026286
      f0      :     0.001064  f :     0.007786
      f+1     :     0.001254
      f-1     :     0.000722
      f+2     :     0.001355
      f-2     :     0.001174
      f+3     :     0.001248
      f-3     :     0.000969

  2 H s       :     0.848126  s :     0.848126
      pz      :     0.010325  p :     0.036681
      px      :     0.009272
      py      :     0.017084
      dz2     :     0.000309  d :     0.001926
      dxz     :     0.000107
      dyz     :     0.000502
      dx2y2   :     0.000477
      dxy     :     0.000530

  3 C s       :     3.094727  s :     3.094727
      pz      :     0.976538  p :     2.875226
      px      :     1.012825
      py      :     0.885863
      dz2     :     0.028840  d :     0.111395
      dxz     :     0.015755
      dyz     :     0.019750
      dx2y2   :     0.023873
      dxy     :     0.023178
      f0      :     0.000663  f :     0.006099
      f+1     :     0.000986
      f-1     :     0.000957
      f+2     :     0.001029
      f-2     :     0.000583
      f+3     :     0.000890
      f-3     :     0.000990

  4 H s       :     0.853038  s :     0.853038
      pz      :     0.010977  p :     0.036962
      px      :     0.011915
      py      :     0.014069
      dz2     :     0.000426  d :     0.001953
      dxz     :     0.000312
      dyz     :     0.000274
      dx2y2   :     0.000623
      dxy     :     0.000318

  5 C s       :     3.117406  s :     3.117406
      pz      :     0.959065  p :     2.902162
      px      :     0.970262
      py      :     0.972835
      dz2     :     0.018845  d :     0.105036
      dxz     :     0.026923
      dyz     :     0.018187
      dx2y2   :     0.014556
      dxy     :     0.026524
      f0      :     0.000736  f :     0.006129
      f+1     :     0.000940
      f-1     :     0.000754
      f+2     :     0.000725
      f-2     :     0.001217
      f+3     :     0.000978
      f-3     :     0.000780

  6 H s       :     0.888368  s :     0.888368
      pz      :     0.019727  p :     0.039724
      px      :     0.010507
      py      :     0.009491
      dz2     :     0.000679  d :     0.002095
      dxz     :     0.000495
      dyz     :     0.000589
      dx2y2   :     0.000190
      dxy     :     0.000142

  7 H s       :     0.884254  s :     0.884254
      pz      :     0.009252  p :     0.039604
      px      :     0.019327
      py      :     0.011025
      dz2     :     0.000144  d :     0.002084
      dxz     :     0.000666
      dyz     :     0.000083
      dx2y2   :     0.000602
      dxy     :     0.000588

  8 C s       :     3.085776  s :     3.085776
      pz      :     1.008648  p :     2.846319
      px      :     0.955383
      py      :     0.882288
      dz2     :     0.029343  d :     0.112604
      dxz     :     0.017635
      dyz     :     0.016962
      dx2y2   :     0.027823
      dxy     :     0.020841
      f0      :     0.000922  f :     0.006263
      f+1     :     0.000594
      f-1     :     0.000747
      f+2     :     0.000620
      f-2     :     0.000995
      f+3     :     0.001197
      f-3     :     0.001188

  9 H s       :     0.873441  s :     0.873441
      pz      :     0.009721  p :     0.039332
      px      :     0.012410
      py      :     0.017201
      dz2     :     0.000204  d :     0.002058
      dxz     :     0.000268
      dyz     :     0.000484
      dx2y2   :     0.000617
      dxy     :     0.000485

 10 H s       :     0.886807  s :     0.886807
      pz      :     0.015524  p :     0.039206
      px      :     0.012858
      py      :     0.010824
      dz2     :     0.000626  d :     0.002115
      dxz     :     0.000419
      dyz     :     0.000438
      dx2y2   :     0.000266
      dxy     :     0.000367

 11 H s       :     0.840272  s :     0.840272
      pz      :     0.018231  p :     0.065969
      px      :     0.035132
      py      :     0.012606
      dz2     :     0.000584  d :     0.003286
      dxz     :     0.001105
      dyz     :     0.000233
      dx2y2   :     0.000679
      dxy     :     0.000685

 12 H s       :     0.875958  s :     0.875958
      pz      :     0.020713  p :     0.040245
      px      :     0.010343
      py      :     0.009189
      dz2     :     0.000580  d :     0.002115
      dxz     :     0.000695
      dyz     :     0.000741
      dx2y2   :     0.000022
      dxy     :     0.000077

 13 O s       :     3.885030  s :     3.885030
      pz      :     1.415777  p :     4.398406
      px      :     1.373733
      py      :     1.608896
      dz2     :     0.000647  d :     0.013584
      dxz     :     0.003803
      dyz     :     0.003235
      dx2y2   :     0.002814
      dxy     :     0.003085
      f0      :     0.000054  f :     0.000436
      f+1     :     0.000033
      f-1     :     0.000041
      f+2     :     0.000116
      f-2     :     0.000085
      f+3     :     0.000087
      f-3     :     0.000020

 14 H s       :     0.672356  s :     0.672356
      pz      :     0.024651  p :     0.077623
      px      :     0.023141
      py      :     0.029831
      dz2     :     0.001334  d :     0.007941
      dxz     :     0.001172
      dyz     :     0.001739
      dx2y2   :     0.002123
      dxy     :     0.001573


SPIN
  0 C s       :    -0.015386  s :    -0.015386
      pz      :    -0.053321  p :    -0.116572
      px      :    -0.049127
      py      :    -0.014123
      dz2     :     0.002174  d :     0.003296
      dxz     :     0.000211
      dyz     :     0.000256
      dx2y2   :     0.001248
      dxy     :    -0.000592
      f0      :     0.000107  f :     0.000514
      f+1     :     0.000103
      f-1     :     0.000047
      f+2     :     0.000060
      f-2     :     0.000049
      f+3     :     0.000030
      f-3     :     0.000118

  1 C s       :     0.014553  s :     0.014553
      pz      :     0.065938  p :     0.132341
      px      :     0.055646
      py      :     0.010757
      dz2     :    -0.001018  d :    -0.000955
      dxz     :    -0.000301
      dyz     :     0.000228
      dx2y2   :    -0.000226
      dxy     :     0.000363
      f0      :    -0.000083  f :    -0.000369
      f+1     :    -0.000128
      f-1     :    -0.000016
      f+2     :    -0.000045
      f-2     :    -0.000059
      f+3     :    -0.000015
      f-3     :    -0.000023

  2 H s       :     0.009163  s :     0.009163
      pz      :    -0.000573  p :    -0.001132
      px      :    -0.000555
      py      :    -0.000004
      dz2     :    -0.000009  d :    -0.000075
      dxz     :    -0.000001
      dyz     :    -0.000029
      dx2y2   :    -0.000003
      dxy     :    -0.000033

  3 C s       :    -0.003725  s :    -0.003725
      pz      :    -0.003915  p :    -0.014333
      px      :    -0.003803
      py      :    -0.006615
      dz2     :     0.000238  d :     0.002054
      dxz     :     0.000360
      dyz     :     0.000710
      dx2y2   :    -0.000080
      dxy     :     0.000826
      f0      :     0.000019  f :     0.000132
      f+1     :     0.000010
      f-1     :     0.000007
      f+2     :     0.000037
      f-2     :     0.000002
      f+3     :     0.000052
      f-3     :     0.000006

  4 H s       :    -0.011802  s :    -0.011802
      pz      :     0.000534  p :     0.001192
      px      :     0.000672
      py      :    -0.000015
      dz2     :     0.000033  d :     0.000097
      dxz     :    -0.000003
      dyz     :     0.000025
      dx2y2   :     0.000023
      dxy     :     0.000020

  5 C s       :    -0.002113  s :    -0.002113
      pz      :    -0.004352  p :    -0.012922
      px      :    -0.003518
      py      :    -0.005052
      dz2     :    -0.000212  d :     0.001704
      dxz     :     0.000368
      dyz     :     0.000877
      dx2y2   :     0.000593
      dxy     :     0.000077
      f0      :     0.000003  f :     0.000188
      f+1     :     0.000029
      f-1     :     0.000030
      f+2     :     0.000047
      f-2     :     0.000018
      f+3     :     0.000014
      f-3     :     0.000047

  6 H s       :     0.006508  s :     0.006508
      pz      :     0.000083  p :     0.000070
      px      :     0.000012
      py      :    -0.000025
      dz2     :     0.000003  d :     0.000003
      dxz     :     0.000001
      dyz     :    -0.000001
      dx2y2   :     0.000000
      dxy     :    -0.000000

  7 H s       :     0.005159  s :     0.005159
      pz      :    -0.000009  p :    -0.000086
      px      :    -0.000022
      py      :    -0.000055
      dz2     :     0.000001  d :     0.000002
      dxz     :     0.000001
      dyz     :    -0.000000
      dx2y2   :     0.000002
      dxy     :    -0.000002

  8 C s       :     0.027130  s :     0.027130
      pz      :     0.050853  p :     0.206848
      px      :     0.138970
      py      :     0.017025
      dz2     :    -0.000771  d :    -0.002896
      dxz     :    -0.000817
      dyz     :    -0.000113
      dx2y2   :    -0.000536
      dxy     :    -0.000658
      f0      :    -0.000018  f :    -0.000234
      f+1     :    -0.000073
      f-1     :    -0.000018
      f+2     :     0.000020
      f-2     :    -0.000092
      f+3     :    -0.000041
      f-3     :    -0.000012

  9 H s       :     0.004306  s :     0.004306
      pz      :     0.000013  p :     0.000166
      px      :    -0.000040
      py      :     0.000192
      dz2     :     0.000001  d :     0.000004
      dxz     :    -0.000001
      dyz     :     0.000001
      dx2y2   :     0.000002
      dxy     :     0.000002

 10 H s       :     0.009115  s :     0.009115
      pz      :     0.000114  p :     0.000184
      px      :     0.000013
      py      :     0.000057
      dz2     :     0.000006  d :     0.000008
      dxz     :     0.000002
      dyz     :     0.000000
      dx2y2   :    -0.000001
      dxy     :     0.000002

 11 H s       :    -0.103317  s :    -0.103317
      pz      :     0.006197  p :     0.015318
      px      :     0.009198
      py      :    -0.000077
      dz2     :     0.000037  d :     0.000347
      dxz     :     0.000178
      dyz     :     0.000022
      dx2y2   :     0.000101
      dxy     :     0.000010

 12 H s       :    -0.004067  s :    -0.004067
      pz      :     0.000502  p :     0.002324
      px      :     0.001838
      py      :    -0.000016
      dz2     :     0.000028  d :     0.000184
      dxz     :     0.000138
      dyz     :     0.000008
      dx2y2   :     0.000008
      dxy     :     0.000002

 13 O s       :     0.013418  s :     0.013418
      pz      :     0.363313  p :     0.860213
      px      :     0.483516
      py      :     0.013384
      dz2     :     0.000218  d :    -0.000061
      dxz     :    -0.000449
      dyz     :     0.000126
      dx2y2   :    -0.000246
      dxy     :     0.000288
      f0      :    -0.000033  f :    -0.000090
      f+1     :     0.000015
      f-1     :     0.000017
      f+2     :     0.000031
      f-2     :    -0.000084
      f+3     :    -0.000027
      f-3     :    -0.000010

 14 H s       :    -0.033331  s :    -0.033331
      pz      :     0.002764  p :     0.005941
      px      :     0.004381
      py      :    -0.001204
      dz2     :     0.000273  d :     0.000982
      dxz     :    -0.000105
      dyz     :     0.000330
      dx2y2   :     0.000024
      dxy     :     0.000461



                     *******************************
                     * LOEWDIN POPULATION ANALYSIS *
                     *******************************

-------------------------------------------
LOEWDIN ATOMIC CHARGES AND SPIN POPULATIONS
-------------------------------------------
   0 C :   -0.023935   -0.053735
   1 C :   -0.008017    0.076356
   2 H :    0.002901   -0.004514
   3 C :   -0.016660    0.004858
   4 H :    0.002413    0.005005
   5 C :    0.003348    0.003363
   6 H :    0.015875    0.003564
   7 H :    0.011940    0.002298
   8 C :    0.007290    0.112200
   9 H :    0.012467    0.001107
  10 H :    0.015307    0.004382
  11 H :   -0.046561    0.046294
  12 H :    0.010820    0.009764
  13 O :    0.149092    0.755738
  14 H :   -0.136279    0.033320

----------------------------------------------------
LOEWDIN REDUCED ORBITAL CHARGES AND SPIN POPULATIONS
----------------------------------------------------
CHARGE
  0 C s       :     2.733764  s :     2.733764
      pz      :     0.940380  p :     2.848721
      px      :     0.940597
      py      :     0.967744
      dz2     :     0.071273  d :     0.397725
      dxz     :     0.052243
      dyz     :     0.084929
      dx2y2   :     0.102370
      dxy     :     0.086910
      f0      :     0.004722  f :     0.043724
      f+1     :     0.004790
      f-1     :     0.005545
      f+2     :     0.005797
      f-2     :     0.008481
      f+3     :     0.005953
      f-3     :     0.008436

  1 C s       :     2.736163  s :     2.736163
      pz      :     0.934305  p :     2.834702
      px      :     0.943973
      py      :     0.956423
      dz2     :     0.061979  d :     0.394034
      dxz     :     0.052129
      dyz     :     0.098005
      dx2y2   :     0.078457
      dxy     :     0.103464
      f0      :     0.005229  f :     0.043119
      f+1     :     0.004837
      f-1     :     0.004419
      f+2     :     0.007789
      f-2     :     0.006661
      f+3     :     0.008351
      f-3     :     0.005833

  2 H s       :     0.817861  s :     0.817861
      pz      :     0.042127  p :     0.151660
      px      :     0.039153
      py      :     0.070380
      dz2     :     0.004005  d :     0.027578
      dxz     :     0.001249
      dyz     :     0.007471
      dx2y2   :     0.007592
      dxy     :     0.007261

  3 C s       :     2.689601  s :     2.689601
      pz      :     0.963370  p :     2.880188
      px      :     0.981540
      py      :     0.935278
      dz2     :     0.098901  d :     0.404415
      dxz     :     0.064040
      dyz     :     0.072320
      dx2y2   :     0.089417
      dxy     :     0.079738
      f0      :     0.004756  f :     0.042457
      f+1     :     0.006623
      f-1     :     0.006418
      f+2     :     0.007296
      f-2     :     0.005284
      f+3     :     0.006054
      f-3     :     0.006027

  4 H s       :     0.818946  s :     0.818946
      pz      :     0.045602  p :     0.151264
      px      :     0.049916
      py      :     0.055747
      dz2     :     0.004895  d :     0.027377
      dxz     :     0.004344
      dyz     :     0.005118
      dx2y2   :     0.006961
      dxy     :     0.006059

  5 C s       :     2.691763  s :     2.691763
      pz      :     0.956302  p :     2.866911
      px      :     0.960955
      py      :     0.949654
      dz2     :     0.070945  d :     0.396075
      dxz     :     0.096732
      dyz     :     0.070046
      dx2y2   :     0.059898
      dxy     :     0.098454
      f0      :     0.005822  f :     0.041903
      f+1     :     0.005439
      f-1     :     0.006334
      f+2     :     0.006058
      f-2     :     0.005542
      f+3     :     0.006991
      f-3     :     0.005717

  6 H s       :     0.806576  s :     0.806576
      pz      :     0.063383  p :     0.148965
      px      :     0.045418
      py      :     0.040164
      dz2     :     0.009461  d :     0.028584
      dxz     :     0.007689
      dyz     :     0.007207
      dx2y2   :     0.002509
      dxy     :     0.001718

  7 H s       :     0.811903  s :     0.811903
      pz      :     0.038985  p :     0.147629
      px      :     0.066327
      py      :     0.042317
      dz2     :     0.002501  d :     0.028528
      dxz     :     0.008634
      dyz     :     0.001024
      dx2y2   :     0.008431
      dxy     :     0.007938

  8 C s       :     2.694624  s :     2.694624
      pz      :     0.978274  p :     2.845266
      px      :     0.927130
      py      :     0.939863
      dz2     :     0.094519  d :     0.409619
      dxz     :     0.066779
      dyz     :     0.062677
      dx2y2   :     0.099280
      dxy     :     0.086364
      f0      :     0.004911  f :     0.043200
      f+1     :     0.003075
      f-1     :     0.005224
      f+2     :     0.007025
      f-2     :     0.008106
      f+3     :     0.006473
      f-3     :     0.008385

  9 H s       :     0.811227  s :     0.811227
      pz      :     0.040989  p :     0.147676
      px      :     0.048160
      py      :     0.058526
      dz2     :     0.003178  d :     0.028630
      dxz     :     0.003729
      dyz     :     0.006029
      dx2y2   :     0.008224
      dxy     :     0.007471

 10 H s       :     0.806827  s :     0.806827
      pz      :     0.056043  p :     0.148800
      px      :     0.051640
      py      :     0.041117
      dz2     :     0.007819  d :     0.029066
      dxz     :     0.007254
      dyz     :     0.005645
      dx2y2   :     0.003531
      dxy     :     0.004817

 11 H s       :     0.739207  s :     0.739207
      pz      :     0.090378  p :     0.272263
      px      :     0.137838
      py      :     0.044047
      dz2     :     0.006798  d :     0.035091
      dxz     :     0.011681
      dyz     :     0.002219
      dx2y2   :     0.006884
      dxy     :     0.007508

 12 H s       :     0.810402  s :     0.810402
      pz      :     0.070683  p :     0.150254
      px      :     0.041744
      py      :     0.037827
      dz2     :     0.009945  d :     0.028524
      dxz     :     0.009380
      dyz     :     0.008229
      dx2y2   :     0.000263
      dxy     :     0.000706

 13 O s       :     3.499527  s :     3.499527
      pz      :     1.375861  p :     4.323157
      px      :     1.330123
      py      :     1.617174
      dz2     :     0.000800  d :     0.026590
      dxz     :     0.009338
      dyz     :     0.006920
      dx2y2   :     0.004635
      dxy     :     0.004897
      f0      :     0.000177  f :     0.001635
      f+1     :     0.000171
      f-1     :     0.000145
      f+2     :     0.000429
      f-2     :     0.000297
      f+3     :     0.000279
      f-3     :     0.000136

 14 H s       :     0.703381  s :     0.703381
      pz      :     0.098273  p :     0.341726
      px      :     0.092258
      py      :     0.151195
      dz2     :     0.016343  d :     0.091172
      dxz     :     0.013138
      dyz     :     0.019748
      dx2y2   :     0.024138
      dxy     :     0.017805


SPIN
  0 C s       :    -0.003635  s :    -0.003635
      pz      :    -0.035131  p :    -0.071504
      px      :    -0.032113
      py      :    -0.004260
      dz2     :     0.009140  d :     0.018676
      dxz     :     0.000426
      dyz     :     0.002260
      dx2y2   :     0.004645
      dxy     :     0.002205
      f0      :     0.000574  f :     0.002728
      f+1     :     0.000427
      f-1     :     0.000320
      f+2     :     0.000259
      f-2     :     0.000104
      f+3     :     0.000244
      f-3     :     0.000800

  1 C s       :     0.003183  s :     0.003183
      pz      :     0.042756  p :     0.082624
      px      :     0.036515
      py      :     0.003353
      dz2     :    -0.004982  d :    -0.008094
      dxz     :    -0.000768
      dyz     :     0.000043
      dx2y2   :    -0.001667
      dxy     :    -0.000720
      f0      :    -0.000443  f :    -0.001356
      f+1     :    -0.000449
      f-1     :    -0.000082
      f+2     :    -0.000088
      f-2     :    -0.000086
      f+3     :    -0.000098
      f-3     :    -0.000111

  2 H s       :     0.002453  s :     0.002453
      pz      :    -0.002671  p :    -0.005842
      px      :    -0.002286
      py      :    -0.000885
      dz2     :    -0.000163  d :    -0.001125
      dxz     :    -0.000012
      dyz     :    -0.000437
      dx2y2   :    -0.000069
      dxy     :    -0.000445

  3 C s       :    -0.000521  s :    -0.000521
      pz      :    -0.000477  p :    -0.003495
      px      :    -0.000545
      py      :    -0.002472
      dz2     :     0.001305  d :     0.008037
      dxz     :     0.000844
      dyz     :     0.002641
      dx2y2   :     0.000258
      dxy     :     0.002990
      f0      :     0.000123  f :     0.000837
      f+1     :     0.000027
      f-1     :     0.000063
      f+2     :     0.000237
      f-2     :     0.000014
      f+3     :     0.000307
      f-3     :     0.000065

  4 H s       :    -0.003098  s :    -0.003098
      pz      :     0.003431  p :     0.006831
      px      :     0.002844
      py      :     0.000556
      dz2     :     0.000419  d :     0.001271
      dxz     :     0.000022
      dyz     :     0.000340
      dx2y2   :     0.000269
      dxy     :     0.000222

  5 C s       :    -0.000856  s :    -0.000856
      pz      :    -0.001400  p :    -0.005375
      px      :    -0.001752
      py      :    -0.002223
      dz2     :     0.000350  d :     0.008388
      dxz     :     0.000524
      dyz     :     0.002940
      dx2y2   :     0.002278
      dxy     :     0.002297
      f0      :     0.000027  f :     0.001206
      f+1     :     0.000217
      f-1     :     0.000194
      f+2     :     0.000265
      f-2     :     0.000062
      f+3     :     0.000076
      f-3     :     0.000366

  6 H s       :     0.003784  s :     0.003784
      pz      :    -0.000003  p :    -0.000160
      px      :    -0.000069
      py      :    -0.000087
      dz2     :     0.000001  d :    -0.000061
      dxz     :    -0.000015
      dyz     :    -0.000035
      dx2y2   :    -0.000004
      dxy     :    -0.000008

  7 H s       :     0.002627  s :     0.002627
      pz      :    -0.000107  p :    -0.000265
      px      :    -0.000026
      py      :    -0.000132
      dz2     :    -0.000004  d :    -0.000063
      dxz     :    -0.000004
      dyz     :    -0.000005
      dx2y2   :    -0.000017
      dxy     :    -0.000034

  8 C s       :     0.008751  s :     0.008751
      pz      :     0.032503  p :     0.122246
      px      :     0.082675
      py      :     0.007068
      dz2     :    -0.001330  d :    -0.017260
      dxz     :    -0.006021
      dyz     :    -0.001844
      dx2y2   :    -0.005581
      dxy     :    -0.002483
      f0      :    -0.000071  f :    -0.001536
      f+1     :    -0.000087
      f-1     :    -0.000143
      f+2     :    -0.000578
      f-2     :    -0.000164
      f+3     :    -0.000289
      f-3     :    -0.000204

  9 H s       :     0.001717  s :     0.001717
      pz      :    -0.000042  p :    -0.000501
      px      :    -0.000128
      py      :    -0.000331
      dz2     :    -0.000008  d :    -0.000108
      dxz     :    -0.000003
      dyz     :    -0.000022
      dx2y2   :    -0.000065
      dxy     :    -0.000010

 10 H s       :     0.004321  s :     0.004321
      pz      :    -0.000038  p :     0.000125
      px      :     0.000120
      py      :     0.000043
      dz2     :    -0.000005  d :    -0.000064
      dxz     :    -0.000016
      dyz     :    -0.000018
      dx2y2   :    -0.000009
      dxy     :    -0.000016

 11 H s       :    -0.031172  s :    -0.031172
      pz      :     0.028005  p :     0.072265
      px      :     0.044216
      py      :     0.000044
      dz2     :     0.000788  d :     0.005201
      dxz     :     0.003056
      dyz     :     0.000064
[...]
     40      -0.000055  -0.000023  -0.000002  -0.000004   0.000064  -0.000011
     41      -0.000185   0.000053   0.000008  -0.000001   0.000028  -0.000088
     42      -0.002493   0.003209   0.000283   0.000880   0.000596  -0.001876
     43       0.000113   0.000692   0.000053  -0.000034  -0.001483  -0.000241
     44       0.003430  -0.000015  -0.000197   0.000759  -0.000168   0.001425
                 42         43         44    
      0      -0.013948  -0.019526   0.000838
      1      -0.054002  -0.058259   0.000220
      2      -0.017559  -0.025516   0.000810
      3      -0.023521   0.028109  -0.000483
      4       0.041921  -0.039648  -0.000253
      5      -0.036397   0.042905  -0.001050
      6       0.170930   0.177771  -0.000831
      7       0.637751   0.653327  -0.000637
      8       0.214646   0.224324  -0.000222
      9      -0.001832   0.001880  -0.000029
     10      -0.001794   0.002708  -0.000263
     11      -0.000819   0.001707  -0.000167
     12       0.280677  -0.274592   0.000292
     13      -0.491210   0.473657  -0.000403
     14       0.435560  -0.425220   0.000918
     15       0.000139   0.000269   0.000036
     16       0.000105   0.001731  -0.000128
     17       0.000366  -0.000615   0.000010
     18      -0.002219   0.005715  -0.000938
     19       0.002187  -0.004715   0.002480
     20       0.001755  -0.007745   0.002352
     21       0.022222  -0.025362   0.000557
     22       0.008306  -0.010240   0.001512
     23       0.004126  -0.006552   0.000496
     24      -0.000438  -0.001424   0.000221
     25       0.000934   0.001534  -0.000212
     26      -0.002350  -0.003113   0.000203
     27      -0.000022   0.004474  -0.000489
     28      -0.000688  -0.008777   0.001911
     29      -0.000566  -0.000902  -0.000097
     30       0.000458  -0.007258  -0.000242
     31       0.000077  -0.002136  -0.000204
     32      -0.000822   0.005604   0.000252
     33       0.002800   0.009825  -0.003256
     34      -0.001816  -0.003054   0.001725
     35      -0.000694  -0.001232  -0.000584
     36      -0.002430  -0.001218  -0.000589
     37      -0.001346  -0.001677   0.001068
     38       0.022828   0.028325  -0.001432
     39       0.000017  -0.000119  -0.051849
     40       0.000005   0.000087   0.019934
     41       0.000027   0.000073   0.029666
     42      -0.000810   0.001620   0.821494
     43      -0.000405  -0.002312  -0.316279
     44      -0.000953  -0.000888  -0.470220


-----------
IR SPECTRUM
-----------

 Mode   freq       eps      Int      T**2         TX        TY        TZ
       cm**-1   L/(mol*cm) km/mol    a.u.
----------------------------------------------------------------------------
  6:     43.55   0.000534    2.70  0.003829  ( 0.015204  0.046830 -0.037481)
  7:     64.43   0.000398    2.01  0.001930  (-0.027866 -0.013015 -0.031363)
  8:    130.19   0.000043    0.22  0.000103  ( 0.006703 -0.007582 -0.000521)
  9:    164.14   0.000633    3.20  0.001204  ( 0.021175  0.019352 -0.019520)
 10:    339.56   0.022659  114.51  0.020824  (-0.028375 -0.105028  0.094805)
 11:    397.46   0.011209   56.65  0.008801  (-0.061698 -0.056338 -0.042664)
 12:    400.30   0.000025    0.13  0.000020  ( 0.002499  0.003434  0.001251)
 13:    609.13   0.001661    8.40  0.000851  (-0.024099  0.005023  0.015660)
 14:    729.47   0.009169   46.34  0.003923  ( 0.051723 -0.000975 -0.035303)
 15:    782.52   0.000036    0.18  0.000014  (-0.002373 -0.000832 -0.002836)
 16:    831.95   0.000340    1.72  0.000128  ( 0.008914  0.002275 -0.006552)
 17:    898.23   0.000476    2.40  0.000165  ( 0.006743  0.002695  0.010611)
 18:    919.30   0.000121    0.61  0.000041  (-0.003900 -0.003266  0.003913)
 19:    925.33   0.001702    8.60  0.000574  (-0.013491 -0.004975 -0.019160)
 20:    982.75   0.000035    0.18  0.000011  ( 0.001853  0.002757  0.000236)
 21:    983.14   0.000264    1.33  0.000084  (-0.002558 -0.007646  0.004319)
 22:   1051.09   0.000324    1.64  0.000096  ( 0.005186  0.002075  0.008055)
 23:   1080.12   0.001978   10.00  0.000572  (-0.019728  0.000278  0.013502)
 24:   1131.39   0.000000    0.00  0.000000  (-0.000172 -0.000086  0.000128)
 25:   1162.46   0.000167    0.84  0.000045  (-0.003529 -0.001137 -0.005568)
 26:   1233.62   0.000001    0.00  0.000000  ( 0.000351  0.000184  0.000182)
 27:   1245.53   0.000417    2.11  0.000105  (-0.007193 -0.003989  0.006078)
 28:   1318.23   0.000282    1.42  0.000067  (-0.004595 -0.001795 -0.006506)
 29:   1332.79   0.000055    0.28  0.000013  (-0.002014 -0.001180 -0.002726)
 30:   1339.78   0.000293    1.48  0.000068  (-0.002646  0.007815 -0.000514)
 31:   1391.52   0.000487    2.46  0.000109  ( 0.005788  0.002110  0.008444)
 32:   1493.82   0.000285    1.44  0.000060  ( 0.005760  0.001305 -0.004974)
 33:   1501.98   0.000782    3.95  0.000162  ( 0.007350  0.002841  0.010018)
 34:   1519.56   0.000474    2.40  0.000097  (-0.000220  0.009626 -0.002163)
 35:   1661.77   0.000566    2.86  0.000106  (-0.003498 -0.008577  0.004519)
 36:   3030.60   0.004622   23.36  0.000476  ( 0.021001 -0.002089  0.005524)
 37:   3038.22   0.005369   27.13  0.000551  ( 0.004899  0.008205  0.021450)
 38:   3068.45   0.003163   15.99  0.000322  ( 0.005333  0.015623 -0.007012)
 39:   3092.00   0.004949   25.01  0.000500  (-0.010245 -0.002358 -0.019723)
 40:   3095.66   0.006297   31.82  0.000635  ( 0.016198  0.015223 -0.011860)
 41:   3127.54   0.006121   30.93  0.000611  ( 0.018252 -0.013967 -0.009084)
 42:   3192.06   0.000844    4.27  0.000083  (-0.005103 -0.001457 -0.007375)
 43:   3216.07   0.002932   14.82  0.000284  ( 0.001578 -0.016510  0.003068)
 44:   3659.45   0.034441  174.05  0.002937  ( 0.045325 -0.001817 -0.029655)

* The epsilon (eps) is given for a Dirac delta lineshape.
** The dipole moment derivative (T) already includes vibrational overlap.

The first frequency considered to be a vibration is 6
The total number of vibrations considered is 39


--------------------------
THERMOCHEMISTRY AT 298.15K
--------------------------

Temperature         ...   298.15 K
Pressure            ...     1.00 atm
Total Mass          ...    85.13 AMU
Quasi RRHO          ...     True
Cut-Off Frequency   ...     1.00 cm^-1

Throughout the following assumptions are being made:
  (1) The electronic state is orbitally nondegenerate
      but the spin degeneracy is treated
  (2) There are no thermally accessible electronically excited states
  (3) Hindered rotations indicated by low frequency modes are not
      treated as such but are treated as vibrations and this may
      cause some error
  (4) All equations used are the standard statistical mechanics
      equations for an ideal gas
  (5) All vibrations are strictly harmonic

freq.      43.55  E(vib)   ...       0.53 
freq.      64.43  E(vib)   ...       0.51 
freq.     130.19  E(vib)   ...       0.43 
freq.     164.14  E(vib)   ...       0.39 
freq.     339.56  E(vib)   ...       0.23 
freq.     397.46  E(vib)   ...       0.20 
freq.     400.30  E(vib)   ...       0.19 
freq.     609.13  E(vib)   ...       0.10 
freq.     729.47  E(vib)   ...       0.06 
freq.     782.52  E(vib)   ...       0.05 
freq.     831.95  E(vib)   ...       0.04 
freq.     898.23  E(vib)   ...       0.03 
freq.     919.30  E(vib)   ...       0.03 
freq.     925.33  E(vib)   ...       0.03 
freq.     982.75  E(vib)   ...       0.02 
freq.     983.14  E(vib)   ...       0.02 
freq.    1051.09  E(vib)   ...       0.02 
freq.    1080.12  E(vib)   ...       0.02 
freq.    1131.39  E(vib)   ...       0.01 
freq.    1162.46  E(vib)   ...       0.01 
freq.    1233.62  E(vib)   ...       0.01 
freq.    1245.53  E(vib)   ...       0.01 
freq.    1318.23  E(vib)   ...       0.01 
freq.    1332.79  E(vib)   ...       0.01 
freq.    1339.78  E(vib)   ...       0.01 
freq.    1391.52  E(vib)   ...       0.00 
freq.    1493.82  E(vib)   ...       0.00 
freq.    1501.98  E(vib)   ...       0.00 
freq.    1519.56  E(vib)   ...       0.00 
freq.    1661.77  E(vib)   ...       0.00 
freq.    3030.60  E(vib)   ...       0.00 
freq.    3038.22  E(vib)   ...       0.00 
freq.    3068.45  E(vib)   ...       0.00 
freq.    3092.00  E(vib)   ...       0.00 
freq.    3095.66  E(vib)   ...       0.00 
freq.    3127.54  E(vib)   ...       0.00 
freq.    3192.06  E(vib)   ...       0.00 
freq.    3216.07  E(vib)   ...       0.00 
freq.    3659.45  E(vib)   ...       0.00 

------------
INNER ENERGY
------------

The inner energy is: U= E(el) + E(ZPE) + E(vib) + E(rot) + E(trans)
    E(el)   - is the total energy from the electronic structure calculation
              = E(kin-el) + E(nuc-el) + E(el-el) + E(nuc-nuc)
    E(ZPE)  - the the zero temperature vibrational energy from the frequency calculation
    E(vib)  - the the finite temperature correction to E(ZPE) due to population
              of excited vibrational states
    E(rot)  - is the rotational thermal energy
    E(trans)- is the translational thermal energy

Summary of contributions to the inner energy U:
Electronic energy                ...   -270.66523691 Eh
Zero point energy                ...      0.12799921 Eh      80.32 kcal/mol
Thermal vibrational correction   ...      0.00476868 Eh       2.99 kcal/mol
Thermal rotational correction    ...      0.00141627 Eh       0.89 kcal/mol
Thermal translational correction ...      0.00141627 Eh       0.89 kcal/mol
-----------------------------------------------------------------------
Total thermal energy                   -270.52963647 Eh


Summary of corrections to the electronic energy:
(perhaps to be used in another calculation)
Total thermal correction                  0.00760122 Eh       4.77 kcal/mol
Non-thermal (ZPE) correction              0.12799921 Eh      80.32 kcal/mol
-----------------------------------------------------------------------
Total correction                          0.13560043 Eh      85.09 kcal/mol


--------
ENTHALPY
--------

The enthalpy is H = U + kB*T
                kB is Boltzmann's constant
Total thermal energy              ...   -270.52963647 Eh 
Thermal Enthalpy correction       ...      0.00094421 Eh       0.59 kcal/mol
-----------------------------------------------------------------------
Total Enthalpy                    ...   -270.52869226 Eh


Note: Only C1 symmetry has been detected, increase convergence thresholds 
      if your molecule has a higher symmetry. Symmetry factor of 1.0 is   
      used for the rotational entropy correction. 
 

Note: Rotational entropy computed according to Herzberg 
Infrared and Raman Spectra, Chapter V,1, Van Nostrand Reinhold, 1945 
Point Group:  C1, Symmetry Number:   1  
Rotational constants in cm-1:     0.139728     0.077953     0.075184 

Vibrational entropy computed according to the QRRHO of S. Grimme
Chem.Eur.J. 2012 18 9955 using a reference frequency of 100.0 cm-1


-------
ENTROPY
-------

The entropy contributions are T*S = T*(S(el)+S(vib)+S(rot)+S(trans))
     S(el)   - electronic entropy
     S(vib)  - vibrational entropy
     S(rot)  - rotational entropy
     S(trans)- translational entropy
The entropies will be listed as multiplied by the temperature to get
units of energy

Electronic entropy                ...      0.00065446 Eh      0.41 kcal/mol
Vibrational entropy               ...      0.00846722 Eh      5.31 kcal/mol
Rotational entropy                ...      0.01286621 Eh      8.07 kcal/mol
Translational entropy             ...      0.01864317 Eh     11.70 kcal/mol
-----------------------------------------------------------------------
Final entropy term                ...      0.04063105 Eh     25.50 kcal/mol

In case the symmetry of your molecule has not been determined correctly
or in case you have a reason to use a different symmetry number we print 
out the resulting rotational entropy values for sn=1,12:

 non-linear molecules -----------------------------------
|  sn= 1 | S(rot)=       0.01286621 Eh      8.07 kcal/mol|
|  sn= 2 | S(rot)=       0.01221175 Eh      7.66 kcal/mol|
|  sn= 3 | S(rot)=       0.01182892 Eh      7.42 kcal/mol|
|  sn= 4 | S(rot)=       0.01155729 Eh      7.25 kcal/mol|
|  sn= 5 | S(rot)=       0.01134661 Eh      7.12 kcal/mol|
|  sn= 6 | S(rot)=       0.01117446 Eh      7.01 kcal/mol|
|  sn= 7 | S(rot)=       0.01102891 Eh      6.92 kcal/mol|
|  sn= 8 | S(rot)=       0.01090284 Eh      6.84 kcal/mol|
|  sn= 9 | S(rot)=       0.01079163 Eh      6.77 kcal/mol|
|  sn=10 | S(rot)=       0.01069215 Eh      6.71 kcal/mol|
|  sn=11 | S(rot)=       0.01060216 Eh      6.65 kcal/mol|
|  sn=12 | S(rot)=       0.01052000 Eh      6.60 kcal/mol|
 linear molecules ---------------------------------------
|  Dinfh | S(rot)=       0.00776917 Eh      4.88 kcal/mol|
|  Cinfv | S(rot)=       0.00842363 Eh      5.29 kcal/mol|
 --------------------------------------------------------


-------------------
GIBBS FREE ENERGY
-------------------

The Gibbs free energy is G = H - T*S

Total enthalpy                    ...   -270.52869226 Eh 
Total entropy correction          ...     -0.04063105 Eh    -25.50 kcal/mol
-----------------------------------------------------------------------
Final Gibbs free energy         ...   -270.56932332 Eh

For completeness - the Gibbs free energy minus the electronic energy
G-E(el)                           ...      0.09591359 Eh     60.19 kcal/mol



--------------------------------
SUGGESTED CITATIONS FOR THIS RUN
--------------------------------

Below you find a list of papers that are relevant to this ORCA run
We neither can nor want to force you to cite these papers, but we appreciate if you do
You receive ORCA, which is the product of decades of hard work by many enthusiastic individuals, for free
The only thing we kindly ask in return is that you cite our papers,
We deeply appreciate it, if you show your appreciation for ORCA by not just citing the generic ORCA reference.

Please note that relegating all ORCA citations to the supporting information does *not* help us.
SI sections are not indexed - citations you put there will not count into any citation statistics
But we need these citations in order to attract the funding resources that allow us to do what we are doing

Therefore, if you are a happy ORCA user, please consider citing a few of the papers listed below in the main body of your paper

In addition to the list printed below, the program has created the file path_back.bibtex that contains the list in bibtex format
You can import this file easily into all common literature databanks and citation aid programs

It goes without saying that in many instances, there are alternative algorithms to achieve similar
results as the ones you have gotten from ORCA. It is, of course, also the case that in some instances
ORCA just re-implements algorithms worked out by others. We are fully aware of that and we are also
fully appreciative of our colleagues work. Hence this citation list should not be read as indicating
that the listed papers, which are focused on our own work, are the only ones worth citing. It simply
meant to make it easier for users to cite ORCA specific papers. It is not a substitute for doing your
own literature research and citing the relevant literature in a scientifically appropriate manner.

List of essential papers. We consider these as the minimum necessary citations

  1. Neese, F.
     Software update: the ORCA program system, version 6.0
     WIRES Comput. Molec. Sci. 2025 15(1), e70019
     doi.org/10.1002/wcms.70019

List of papers to cite with high priority. The work reported in these papers was absolutely
necessary for this run to complete.
Our perspective: the developers of density functionals and basis sets usually get cited in chemistry papers
Good! But without the algorithms to do something with them, the functionals or basis sets would not do anything.
Hence, in our opinion, the algorithm design and method developments papers are equally worthy of getting cited

  1. Neese, F.
     An improvement of the resolution of the identity approximation for the formation of the Coulomb matrix
     J. Comp. Chem. 2003 24(14), 1740-1747
     doi.org/10.1002/jcc.10318
  2. Neese, F.; Schwabe, T.; Grimme, S.
     Analytic derivatives for perturbatively corrected 'double hybrid' density functionals: Theory, implementation, and applications
     J. Chem. Phys. 2007 126(12), Art. No. 124115
     doi.org/10.1063/1.2712433
  3. Neese, F.; Wennmohs, F.; Hansen, A.; Becker, U.
     Efficient, approximate and parallel Hartree-Fock and hybrid DFT calculations. A 'chain-of-spheres' algorithm for the Hartree-Fock exchange
     Chem. Phys. 2009 356(1-3), 98-109
     doi.org/10.1016/j.chemphys.2008.10.036
  4. Kossmann, S.; Neese, F.
     Efficient Structure Optimization with Second-Order Many-Body Perturbation Theory: The RIJCOSX-MP2 Method
     J. Theo. Comp. Chem. 2010 6 , 2325-2338
     doi.org/10.1021/ct100199k
  5. Caldeweyher, E.; Bannwarth, C.; Grimme, S.
     Extension of the D3 dispersion coefficient model
     J. Chem. Phys. 2017 147 , 034112
     doi.org/10.1063/1.4993215
  6. Caldeweyher, E.; Ehlert, S.; Hansen, A.; Neugebauer, H.; Spicher, S.; Bannwarth, C.; Grimme, S.
     A generally applicable atomic-charge dependent London dispersion correction
     J. Chem. Phys. 2019 150 , 154122
     doi.org/10.1063/1.5090222
  7. Helmich-Paris, B.; de Souza, B.; Neese, F.; Izsák, R.
     An improved chain of spheres for exchange algorithm
     J. Chem. Phys. 2021 155(10), 104109
     doi.org/10.1063/5.0058766
  8. Neese, F.
     The SHARK Integral Generation and Digestion System
     J. Comp. Chem. 2022 44(3), 381
     doi.org/10.1002/jcc.26942

List of suggested additional citations. These are papers that are important in the 'surrounding' of 
of this run, or papers that preceded the highly important papers. If you like your results we are grateful for a citation.

  1. Izsak, R.; Neese, F.
     An overlap fitted chain of spheres exchange method
     J. Chem. Phys. 2011 135 , 144105
     doi.org/10.1063/1.3646921
  2. Izsak, R.; Hansen, A.; Neese, F.
     The resolution of identity and chain of spheres approximations for the LPNO-CCSD singles Fock term
     Molec. Phys. 2012 110 , 2413-2417
     doi.org/10.1080/00268976.2012.687466
  3. Neese, F.
     The ORCA program system
     WIRES Comput. Molec. Sci. 2012 2(1), 73-78
     doi.org/10.1002/wcms.81
  4. Izsak, R.; Neese, F.; Klopper, W.
     Robust fitting techniques in the chain of spheres approximation to the Fock exchange: The role of the complementary space
     J. Chem. Phys. 2013 139 , 
     doi.org/10.1063/1.4819264
  5. Neese, F.
     Software update: the ORCA program system, version 4.0
     WIRES Comput. Molec. Sci. 2018 8(1), 1-6
     doi.org/10.1002/wcms.1327
  6. Neese, F.; Wennmohs, F.; Becker, U.; Riplinger, C.
     The ORCA quantum chemistry program package
     J. Chem. Phys. 2020 152(22), 224108
     doi.org/10.1063/5.0004608
  7. Neese, F.
     Software update: The ORCA program system—Version 5.0
     WIRES Comput. Molec. Sci. 2022 12(1), e1606
     doi.org/10.1002/wcms.1606

List of optional additional citations

  1. Neese, F.
     Approximate second-order SCF convergence for spin unrestricted wavefunctions
     Chem. Phys. Lett. 2000 325(1-3), 93-98
     doi.org/10.1016/s0009-2614(00)00662-x

Timings for individual modules:

Sum of individual times          ...    17273.668 sec (= 287.894 min)
Startup calculation              ...      268.462 sec (=   4.474 min)   1.6 %
SCF iterations                   ...     4075.902 sec (=  67.932 min)  23.6 %
Property calculations            ...        2.345 sec (=   0.039 min)   0.0 %
MP2 module                       ...     4466.497 sec (=  74.442 min)  25.9 %
Geometry relaxation              ...        4.581 sec (=   0.076 min)   0.0 %
Numerical frequency calculation  ...     8455.881 sec (= 140.931 min)  49.0 %
                             ****ORCA TERMINATED NORMALLY****
TOTAL RUN TIME: 0 days 4 hours 47 minutes 30 seconds 171 msec
