
                                 *****************
                                 * O   R   C   A *
                                 *****************

                                            #,                                       
                                            ###                                      
                                            ####                                     
                                            #####                                    
                                            ######                                   
                                           ########,                                 
                                     ,,################,,,,,                         
                               ,,#################################,,                 
                          ,,##########################################,,             
                       ,#########################################, ''#####,          
                    ,#############################################,,   '####,        
                  ,##################################################,,,,####,       
                ,###########''''           ''''###############################       
              ,#####''   ,,,,##########,,,,          '''####'''          '####       
            ,##' ,,,,###########################,,,                        '##       
           ' ,,###''''                  '''############,,,                           
         ,,##''                                '''############,,,,        ,,,,,,###''
      ,#''                                            '''#######################'''  
     '                                                          ''''####''''         
             ,#######,   #######,   ,#######,      ##                                
            ,#'     '#,  ##    ##  ,#'     '#,    #''#        ,####,    ,#,          
            ##       ##  ##   ,#'  ##            #'  '#       #'       ,# #          
            ##       ##  #######   ##           ,######,      #####,      #          
            '#,     ,#'  ##    ##  '#,     ,#' ,#      #,     #,   #      #          
             '#######'   ##     ##  '#######'  #'      '#     '####' #    #          



                #########################################################
                #                        -***-                          #
                #          Department of theory and spectroscopy        #
                #                                                       #
                #                      Frank Neese                      #
                #                                                       #
                #     Directorship, Architecture, Infrastructure        #
                #                    SHARK, DRIVERS                     #
                #        Core code/Algorithms in most modules           #
                #                                                       #
                #        Max Planck Institute fuer Kohlenforschung      #
                #                Kaiser Wilhelm Platz 1                 #
                #                 D-45470 Muelheim/Ruhr                 #
                #                      Germany                          #
                #                                                       #
                #                  All rights reserved                  #
                #                        -***-                          #
                #########################################################


                         Program Version 6.1.1  -  RELEASE   -
                                (GIT: $487d211c$)
                          ($2025-11-21 10:33:24 +0100$)


 With contributions from (in alphabetic order):
[Max-Planck-Institut fuer Kohlenforschung]                               
  Daniel Aravena         : Magnetic Suceptibility                        
  Michael Atanasov       : Ab Initio Ligand Field Theory (pilot matlab implementation)
  Alexander A. Auer      : GIAO ZORA, VPT2 properties, NMR spectrum      
  Ute Becker             : All parallelization in ORCA, NUMFREQ, NUMCALC 
  Giovanni Bistoni       : ED, misc. LED, open-shell LED, HFLD           
  Dmytro Bykov           : pre 5.0 version of the SCF Hessian            
  Marcos Casanova-Páez   : Triplet and SCS-CIS(D). UHF-(DLPNO)-IP/EA/STEOM-CCSD. UHF-CVS-IP/STEOM-CCSD   
  Vijay G. Chilkuri      : MRCI spin determinant printing, contributions to CSF-ICE 
  Pauline Colinet        : FMM embedding                                 
  Dipayan Datta          : RHF DLPNO-CCSD density                        
  Achintya Kumar Dutta   : EOM-CC, STEOM-CC                              
  Nicolas Foglia         : Exact transition moments, OPA infrastructure, MCD improvements    
  Dmitry Ganyushin       : Spin-Orbit,Spin-Spin,Magnetic field MRCI      
  Miquel Garcia-Rates    : C-PCM and meta-GGA Hessian, CCSD/C-PCM, Gaussian charge scheme 
  Tiago L. C. Gouveia    : GS-ROHF, GS-ROCIS                             
  Yang Guo               : DLPNO-NEVPT2, F12-NEVPT2, CIM, IAO-localization        
  Andreas Hansen         : Spin unrestricted coupled pair/coupled cluster methods 
  Ingolf Harden          : AUTO-CI MPn and infrastructure                
  Benjamin Helmich-Paris : MC-RPA, TRAH-(SCF,CASSCF), AVAS, COSX integrals, SCF dyn. polar., MC-PDFT, srDFT 
  Lee Huntington         : MR-EOM, pCC                                   
  Robert Izsak           : Overlap fitted RIJCOSX, COSX-SCS-MP3, EOM     
  Riya Kayal             : Wick's Theorem for AUTO-CI, AUTO-CI UHF-CCSDT 
  Emily Kempfer          : AUTO-CI RHF CISDT and CCSDT, approximate NEVPT4
  Christian Kollmar      : KDIIS, OOCD, Brueckner-CCSD(T), CCSD density, CASPT2, CASPT2-K, improved NEVPT2 
  Axel Koslowski         : Symmetry handling                             
  Simone Kossmann        : meta-GGA functionals, TD-DFT gradient, OOMP2, (MP2 Hessian; deprecated post 5.0) 
  Lucas Lang             : DCDCAS, Hyperfine gauge corrections, ICE-SOC+SSC
  Marvin Lechner         : AUTO-CI (C++ implementation), FIC-MRCC        
  Spencer Leger          : CASSCF response                               
  Dagmar Lenk            : GEPOL surface, SMD, ORCA-2-JSON               
  Dimitrios Liakos       : Extrapolation schemes; Compound Job, Property file
  Dimitrios Manganas     : Further ROCIS development; embedding schemes. LFT, Crystal Embedding 
  Dimitrios Pantazis     : SARC Basis sets                               
  Anastasios Papadopoulos: AUTO-CI, single reference methods and gradients 
  Taras Petrenko         : pre 6.0 DFT Hessian and TD-DFT gradient,  ECA, NRVS 
  Petra Pikulova         : Analytic Raman intensities                    
  Peter Pinski           : DLPNO-MP2, DLPNO-MP2 Gradient                 
  Shashank Vittal Rao    : ES-AILFT, MagRelax                            
  Christoph Reimann      : Effective Core Potentials                     
  Marius Retegan         : Local ZFS, SOC                                
  Christoph Riplinger    : Optimizer, TS searches, QM/MM, DLPNO-CCSD(T), (RO)-DLPNO pert. Triples 
  Michael Roemelt        : Original ROCIS implementation, recursive CI coupling coefficients
  Masaaki Saitow         : Open-shell DLPNO-CCSD energy and density      
  Barbara Sandhoefer     : DKH picture change effects                    
  Yorick L. A. Schmerwitz: GMF and freeze-and-release deltaSCF, NEB S-IDPP initial path                    
  Kantharuban Sivalingam : CASSCF convergence/infrastructure, NEVPT2, NEVPT3, NEVPT4(SD), FIC-MRCI and CEPA variants
  Bernardo de Souza      : ESD, SOC TD-DFT                               
  Georgi L. Stoychev     : AutoAux, RI-MP2 NMR, DLPNO-MP2 response, X2C  
  Van Anh Tran           : RI-MP2 g-tensors                              
  Willem Van den Heuvel  : Paramagnetic NMR                              
  Zikuan Wang            : NOTCH, Electric field optimization            
  Frank Wennmohs         : Technical directorship and infrastructure     
  Hang Xu                : AUTO-CI-Response properties                   
                                                                         
[FACCTs GmbH]                                                            
  Markus Bursch, Nicolas Foglia, Miquel Garcia-Rates, Ingolf Harden, Hagen Neugebauer, Anastasios Papadopoulos, 
  Christoph Riplinger, Bernardo de Souza, Georgi L. Stoychev                                                    
                                                                 
  APM, various basis sets, CI-OPT, improved COSX, DLPNO-Multilevel,           
  DOCKER, DRACO, updates on ESD, Fragmentator, GOAT, IRC, LR-CPCM, L-BFGS, MBIS, meta-GGA TD-DFT gradient, ML-optimized integration grids, 
  MM, NACMEs, nearIR, NEB, NEB-TS, NL-DFT gradient (VV10), 2- and 3-layer-ONIOM, interface openCOSMO-RS, QMMM,   
  Crystal-QMMM, RESP, rigid body optimization, SF, symmetry and pop. for TD-DFT, various functionals, SOLVATOR                                   
                                                                         
[Other institutions]                                                     
  V. Asgeirsson          : NEB                                           
  Christoph Bannwarth    : sTDA-DFT, sTD-DFT, PBEh-3c, B97-3c, D3        
  Giovanni Bistoni       : ETS/NOCV, ADLD/ADEX, COVALED                  
  Martin Brehm           : Molecular dynamics                            
  Ronald Cardenas        : ETS/NOCV                                      
  Martina Colucci        : COVALED                                       
  Sebastian Ehlert       : rSCAN, r2SCAN, r2SCAN-3c, D4, dhf basis sets  
  Marvin Friede          : D4 for Fr, Ra, Ac-Lr                          
  Lars Goerigk           : TD-DFT with DH, B97 family of functionals     
  Stefan Grimme          : VdW corrections, initial TS optimization, DFT functionals, gCP, sTDA/sTD-DF 
  Waldemar Hujo          : DFT-NL                                        
  H. Jonsson             : NEB                                           
  Holger Kruse           : gCP                                           
  Marcel Mueller         : wB97X-3c, vDZP basis set                      
  Hagen Neugebauer       : wr2SCAN, Native XTB                           
  Gianluca Regni         : ADLD/ADEX                                     
  Tobias Risthaus        : pre 6.0 range-separated hybrid DFT and stability analysis
  Lukas Wittmann         : regularized MP2, r2SCAN double-hybrids, wr2SCAN        
                                                                         
We gratefully acknowledge several colleagues who have allowed us to      
interface, adapt or use parts of their codes:                            
  Ed Valeev, F. Pavosevic, A. Kumar             : LibInt (2-el integral package), F12 methods 
  Garnet Chan, S. Sharma, J. Yang, R. Olivares  : DMRG                   
  Ulf Ekstrom                                   : XCFun DFT Library      
  Mihaly Kallay                                 : mrcc  (arbitrary order and MRCC methods)
  Frank Weinhold                                : gennbo (NPA and NBO analysis)           
  Simon Mueller                                 : openCOSMO-RS                            
  Christopher J. Cramer and Donald G. Truhlar   : smd solvation model                     
  S Lehtola, MJT Oliveira, MAL Marques          : LibXC Library                           
  Liviu Ungur et al                             : ANISO software                          


 Your calculation uses the libint2 library for the computation of 2-el integrals
 For citations please refer to: http://libint.valeyev.net

 Your ORCA version has been built with support for libXC version: 7.0.0
 For citations please refer to: https://libxc.gitlab.io

 This ORCA versions uses:
   CBLAS   interface :  Fast vector & matrix operations
   LAPACKE interface :  Fast linear algebra routines
   SCALAPACK package :  Parallel linear algebra routines
   Shared memory     :  Shared parallel matrices
   BLAS/LAPACK       :  OpenBLAS 0.3.29  USE64BITINT DYNAMIC_ARCH NO_AFFINITY Zen SINGLE_THREADED
        Core in use  :  Zen
   Copyright (c) 2011-2014, The OpenBLAS Project


  ***********************************
  * Starting time: Tue Mar 10 13:07:01 2026
  * Host name:     ra6-1
  * Process ID:    14995
  * Working dir.:  /home/avcopan/proj/project-cyclopentane/code/oh-addition/calc/cyC5e1/RH+OH-c5
  ***********************************

NOTE: MaxCore=6000 MB was set to SCF,MP2,MDCI,CIPSI,MRCI,RASCI and CIS
      => If you want to overwrite this, your respective input block should be placed after the MaxCore statement


***************************************
The coordinates will be read from file: path_init_back.xyz
***************************************


Your calculation utilizes the atom-pairwise dispersion correction
based on EEQ partial charges (D4)


Warning: RI is on but no J-basis has been assigned. Assigning Def2/J (nothing to worry about!)
================================================================================

----- Orbital basis set information -----
Your calculation utilizes the basis: def2-TZVPP
   F. Weigend and R. Ahlrichs, Phys. Chem. Chem. Phys. 7, 3297 (2005).

----- AuxJ basis set information -----
Your calculation utilizes the auxiliary basis: def2/J
   H-Rn: F. Weigend, Phys. Chem. Chem. Phys. 8, 1057 (2006).
   Fr-Lr: K. Eichkorn, F. Weigend, O. Treutler, R. Ahlrichs; Theor. Chem. Acc. 97, 119 (1997).

----- AuxC basis set information -----
Your calculation utilizes the auxiliary basis: def2-TZVPP/C
  H-La, Hf-Rn : A. Hellweg, C. Hattig, S. Hofener and W. Klopper, Theor. Chem. Acc. 117, 587 (2007).
        Ce-Lu : J. Chmela and M. E. Harding, Mol. Phys. (2018).

================================================================================
                                        WARNINGS
                       Please study these warnings very carefully!
================================================================================


WARNING: your system is open-shell and RHF/RKS was chosen
  ===> : WILL SWITCH to UHF/UKS


WARNING: The frozen-core approximation for MP2-gradient calculations is turned on by default.

WARNING: The environment variable RSH_COMMAND is not set!
  ===> : All Displacements for the Numerical Hessian or Gradient calculation
         will be started on localhost

WARNING: Geometry Optimization
  ===> : Switching off AutoStart
         For restart on a previous wavefunction, please use MOREAD

WARNING: The frozen-core approximation is turned on by default for 
         the MP2 part of double-hybrid DFT.

================================================================================
                                       INPUT FILE
================================================================================
NAME = path_back.inp
|  1> % MaxCore 6000
|  2> ! PAL8
|  3> ! REVDSD-PBEP86-D4/2021 def2-TZVPP def2-TZVPP/c
|  4> ! VeryTightSCF DefGrid3
|  5> ! Opt
|  6> ! NumFreq
|  7> %geom
|  8>    MaxIter        500
|  9>    Convergence    Tight
| 10> end
| 11> * xyzfile 0 2 path_init_back.xyz
| 12> 
| 13>                          ****END OF INPUT****
================================================================================

                       *****************************
                       * Geometry Optimization Run *
                       *****************************

Geometry optimization settings:
Update method            Update   .... BFGS
Choice of coordinates    CoordSys .... (2022) Redundant Internals
Initial Hessian          InHess   .... Almloef's Model
Max. no of cycles        MaxIter  .... 500

Convergence Tolerances:
Energy Change            TolE     ....  1.0000e-06 Eh
Max. Gradient            TolMAXG  ....  1.0000e-04 Eh/bohr
RMS Gradient             TolRMSG  ....  3.0000e-05 Eh/bohr
Max. Displacement        TolMAXD  ....  1.0000e-03 bohr
RMS Displacement         TolRMSD  ....  6.0000e-04 bohr
Strict Convergence                .... False

------------------------------------------------------------------------------
                        ORCA OPTIMIZATION COORDINATE SETUP
------------------------------------------------------------------------------

The optimization will be done in redundant internal coordinates (2022)
Making redundant internal coordinates   ...  (2022 redundants) done
Evaluating the initial hessian          ...  (Almloef) done
Evaluating the coordinates              ...  done
Calculating the B-matrix                .... done
Calculating the G-matrix                .... done
The number of degrees of freedom        ....   70

    -----------------------------------------------------------------
                    Redundant Internal Coordinates


    -----------------------------------------------------------------
         Definition                    Initial Value    Approx d2E/dq
    -----------------------------------------------------------------
      1. B(C   1,C   0)                  1.3275         0.785999   
      2. B(H   2,C   0)                  1.0822         0.370501   
      3. B(C   3,C   1)                  1.5036         0.411695   
      4. B(H   4,C   1)                  1.1232         0.318731   
      5. B(C   5,C   3)                  1.5484         0.349137   
      6. B(H   6,C   3)                  1.0910         0.358730   
      7. B(H   7,C   3)                  1.0951         0.353395   
      8. B(C   8,C   5)                  1.5479         0.349845   
      9. B(C   8,C   0)                  1.5122         0.398837   
     10. B(H   9,C   5)                  1.0916         0.357927   
     11. B(H  10,C   5)                  1.0902         0.359784   
     12. B(H  11,C   8)                  1.0920         0.357448   
     13. B(H  12,C   8)                  1.0958         0.352484   
     14. B(O  13,H   4)                  1.3635         0.118082   
     15. B(H  14,O  13)                  0.9690         0.503101   
     16. A(C   1,C   0,H   2)          125.5489         0.369267   
     17. A(C   1,C   0,C   8)          110.3155         0.418501   
     18. A(H   2,C   0,C   8)          124.1074         0.329374   
     19. A(C   0,C   1,H   4)          124.0440         0.359881   
     20. A(C   3,C   1,H   4)          121.6753         0.322998   
     21. A(C   0,C   1,C   3)          114.2689         0.420876   
     22. A(C   5,C   3,H   6)          112.7219         0.320543   
     23. A(C   1,C   3,H   6)          113.0302         0.329344   
     24. A(C   1,C   3,C   5)          101.1731         0.365190   
     25. A(H   6,C   3,H   7)          107.3009         0.289809   
     26. A(C   5,C   3,H   7)          112.2139         0.319759   
     27. A(C   1,C   3,H   7)          110.4357         0.328530   
     28. A(C   1,H   4,O  13)          164.2134         0.239771   
     29. A(C   3,C   5,H   9)          108.7208         0.320426   
     30. A(C   3,C   5,C   8)          105.9064         0.355199   
     31. A(H   9,C   5,H  10)          107.7927         0.290523   
     32. A(C   8,C   5,H  10)          112.7530         0.320803   
     33. A(C   3,C   5,H  10)          112.6224         0.320697   
     34. A(C   8,C   5,H   9)          108.9452         0.320532   
     35. A(C   0,C   8,C   5)          103.0769         0.363339   
     36. A(H  11,C   8,H  12)          107.0016         0.289530   
     37. A(C   5,C   8,H  12)          111.7837         0.319730   
     38. A(C   0,C   8,H  12)          109.9252         0.326677   
     39. A(C   5,C   8,H  11)          112.2732         0.320462   
     40. A(C   0,C   8,H  11)          112.8481         0.327431   
     41. A(H   4,O  13,H  14)           98.4198         0.254232   
     42. D(C   3,C   1,C   0,C   8)     -1.5722         0.044476   
     43. D(C   3,C   1,C   0,H   2)    176.5563         0.044476   
     44. D(H   4,C   1,C   0,H   2)     -2.2104         0.044476   
     45. D(H   4,C   1,C   0,C   8)    179.6610         0.044476   
     46. D(C   5,C   3,C   1,C   0)     15.1331         0.012549   
     47. D(H   6,C   3,C   1,C   0)    135.9158         0.012549   
     48. D(H   7,C   3,C   1,C   0)   -103.8694         0.012549   
     49. D(H   6,C   3,C   1,H   4)    -45.2849         0.012549   
     50. D(C   5,C   3,C   1,H   4)   -166.0676         0.012549   
     51. D(O  13,H   4,C   1,C   3)   -100.5686         0.081684   
     52. D(O  13,H   4,C   1,C   0)     78.1104         0.081684   
     53. D(C   8,C   5,C   3,H   7)     95.8078         0.010000   
     54. D(C   8,C   5,C   3,C   1)    -21.9086         0.010000   
     55. D(H   9,C   5,C   3,C   1)     95.0292         0.010000   
     56. D(C   8,C   5,C   3,H   6)   -142.9088         0.010000   
     57. D(H   9,C   5,C   3,H   7)   -147.2544         0.010000   
     58. D(H   9,C   5,C   3,H   6)    -25.9710         0.010000   
     59. D(H  11,C   8,C   5,H  10)    -93.1134         0.010000   
     60. D(H  11,C   8,C   5,C   3)    143.2969         0.010000   
     61. D(C   0,C   8,C   5,H  10)    145.1573         0.010000   
     62. D(C   0,C   8,C   5,H   9)    -95.2191         0.010000   
     63. D(C   0,C   8,C   5,C   3)     21.5676         0.010000   
     64. D(H  12,C   8,C   0,C   1)    106.4751         0.011808   
     65. D(H  11,C   8,C   0,H   2)     47.6701         0.011808   
     66. D(H  11,C   8,C   0,C   1)   -134.1689         0.011808   
     67. D(H  11,C   8,C   5,H   9)     26.5102         0.010000   
     68. D(C   5,C   8,C   0,H   2)    169.0102         0.011808   
     69. D(C   5,C   8,C   0,C   1)    -12.8288         0.011808   
     70. D(H  14,O  13,H   4,C   1)     -6.4755         0.010000   
    -----------------------------------------------------------------

Number of atoms                         .... 15
Number of degrees of freedom            .... 70


         *************************************************************
         *                GEOMETRY OPTIMIZATION CYCLE   1            *
         *************************************************************
---------------------------------
CARTESIAN COORDINATES (ANGSTROEM)
---------------------------------
  C      0.158988   -1.144565   -0.082173
  C     -0.524268   -0.006602   -0.104746
  H     -0.267078   -2.136038   -0.164099
  C      0.314754    1.222366    0.110533
  H     -1.636411    0.056339   -0.248961
  C      1.738455    0.657089   -0.115588
  H      0.068971    2.032844   -0.577274
  H      0.178033    1.605389    1.127332
  C      1.631733   -0.868721    0.121898
  H      2.025264    0.834984   -1.153754
  H      2.484387    1.131934    0.522165
  H      2.268126   -1.438946   -0.558056
  H      1.925313   -1.143118    1.141376
  O     -2.987010    0.032119   -0.063302
  H     -3.000239   -0.330517    0.835154

----------------------------
CARTESIAN COORDINATES (A.U.)
----------------------------
  NO LB      ZA    FRAG     MASS         X           Y           Z
   0 C     6.0000    0    12.011    0.300444   -2.162914   -0.155284
   1 C     6.0000    0    12.011   -0.990723   -0.012476   -0.197941
   2 H     1.0000    0     1.008   -0.504704   -4.036527   -0.310102
   3 C     6.0000    0    12.011    0.594799    2.309937    0.208877
   4 H     1.0000    0     1.008   -3.092369    0.106465   -0.470468
   5 C     6.0000    0    12.011    3.285204    1.241718   -0.218430
   6 H     1.0000    0     1.008    0.130336    3.841518   -1.090890
   7 H     1.0000    0     1.008    0.336434    3.033746    2.130349
   8 C     6.0000    0    12.011    3.083528   -1.641645    0.230354
   9 H     1.0000    0     1.008    3.827194    1.577891   -2.180279
  10 H     1.0000    0     1.008    4.694811    2.139045    0.986749
  11 H     1.0000    0     1.008    4.286137   -2.719214   -1.054573
  12 H     1.0000    0     1.008    3.638314   -2.160180    2.156888
  13 O     8.0000    0    15.999   -5.644631    0.060696   -0.119623
  14 H     1.0000    0     1.008   -5.669630   -0.624587    1.578212

--------------------------------
INTERNAL COORDINATES (ANGSTROEM)
--------------------------------
 C      0   0   0     0.000000000000     0.00000000     0.00000000
 C      1   0   0     1.327519525745     0.00000000     0.00000000
 H      1   2   0     1.082248961913   125.54891906     0.00000000
 C      2   1   3     1.503550900152   114.26894738   176.55632048
 H      2   1   3     1.123219296556   124.04396084   357.78955594
 C      4   2   1     1.548416394505   101.17312136    15.13309764
 H      4   2   1     1.091037277467   113.03023242   135.91582493
 H      4   2   1     1.095116184143   110.43567244   256.13059357
 C      1   2   3     1.512188057221   110.31548834   181.87147966
 H      6   4   2     1.091647689075   108.72080089    95.02918517
 H      6   4   2     1.090239061701   112.62242637   214.41956992
 H      9   1   2     1.092011924472   112.84808947   225.83107899
 H      9   1   2     1.095818562762   109.92523447   106.47513503
 O      5   2   1     1.363515137973   164.21341709    78.11035302
 H     14   5   2     0.968970102156    98.41976527   353.52449252

---------------------------
INTERNAL COORDINATES (A.U.)
---------------------------
 C      0   0   0     0.000000000000     0.00000000     0.00000000
 C      1   0   0     2.508648341091     0.00000000     0.00000000
 H      1   2   0     2.045154146735   125.54891906     0.00000000
 C      2   1   3     2.841299429699   114.26894738   176.55632048
 H      2   1   3     2.122576858826   124.04396084   357.78955594
 C      4   2   1     2.926082926888   101.17312136    15.13309764
 H      4   2   1     2.061761656311   113.03023242   135.91582493
 H      4   2   1     2.069469672854   110.43567244   256.13059357
 C      1   2   3     2.857621291134   110.31548834   181.87147966
 H      6   4   2     2.062915167079   108.72080089    95.02918517
 H      6   4   2     2.060253247118   112.62242637   214.41956992
 H      9   1   2     2.063603472229   112.84808947   225.83107899
 H      9   1   2     2.070796976087   109.92523447   106.47513503
 O      5   2   1     2.576670190225   164.21341709    78.11035302
 H     14   5   2     1.831088125033    98.41976527   353.52449252

---------------------
BASIS SET INFORMATION
---------------------
There are 3 groups of distinct atoms

 Group   1 Type C   : 11s6p2d1f contracted to 5s3p2d1f pattern {62111/411/11/1}
 Group   2 Type H   : 5s2p1d contracted to 3s2p1d pattern {311/11/1}
 Group   3 Type O   : 11s6p2d1f contracted to 5s3p2d1f pattern {62111/411/11/1}

Atom   0C    basis set group =>   1
Atom   1C    basis set group =>   1
Atom   2H    basis set group =>   2
Atom   3C    basis set group =>   1
Atom   4H    basis set group =>   2
Atom   5C    basis set group =>   1
Atom   6H    basis set group =>   2
Atom   7H    basis set group =>   2
Atom   8C    basis set group =>   1
Atom   9H    basis set group =>   2
Atom  10H    basis set group =>   2
Atom  11H    basis set group =>   2
Atom  12H    basis set group =>   2
Atom  13O    basis set group =>   3
Atom  14H    basis set group =>   2
---------------------------------
AUXILIARY/J BASIS SET INFORMATION
---------------------------------
There are 3 groups of distinct atoms

 Group   1 Type C   : 12s5p4d2f1g contracted to 6s4p3d1f1g pattern {711111/2111/211/2/1}
 Group   2 Type H   : 5s2p1d contracted to 3s1p1d pattern {311/2/1}
 Group   3 Type O   : 12s5p4d2f1g contracted to 6s4p3d1f1g pattern {711111/2111/211/2/1}

Atom   0C    basis set group =>   1
Atom   1C    basis set group =>   1
Atom   2H    basis set group =>   2
Atom   3C    basis set group =>   1
Atom   4H    basis set group =>   2
Atom   5C    basis set group =>   1
Atom   6H    basis set group =>   2
Atom   7H    basis set group =>   2
Atom   8C    basis set group =>   1
Atom   9H    basis set group =>   2
Atom  10H    basis set group =>   2
Atom  11H    basis set group =>   2
Atom  12H    basis set group =>   2
Atom  13O    basis set group =>   3
Atom  14H    basis set group =>   2
---------------------------------
AUXILIARY/C BASIS SET INFORMATION
---------------------------------
There are 3 groups of distinct atoms

 Group   1 Type C   : 8s6p5d3f1g contracted to 8s6p4d3f1g pattern {11111111/111111/2111/111/1}
 Group   2 Type H   : 4s3p2d1f contracted to 4s3p2d1f pattern {1111/111/11/1}
 Group   3 Type O   : 8s6p5d3f1g contracted to 8s6p4d3f1g pattern {11111111/111111/2111/111/1}

Atom   0C    basis set group =>   1
Atom   1C    basis set group =>   1
Atom   2H    basis set group =>   2
Atom   3C    basis set group =>   1
Atom   4H    basis set group =>   2
Atom   5C    basis set group =>   1
Atom   6H    basis set group =>   2
Atom   7H    basis set group =>   2
Atom   8C    basis set group =>   1
Atom   9H    basis set group =>   2
Atom  10H    basis set group =>   2
Atom  11H    basis set group =>   2
Atom  12H    basis set group =>   2
Atom  13O    basis set group =>   3
Atom  14H    basis set group =>   2


           ************************************************************
           *        Program running with 8 parallel MPI-processes     *
           *              working on a common directory               *
           ************************************************************
------------------------------------------------------------------------------
                             ORCA STARTUP CALCULATIONS
                           -- RI-GTO INTEGRALS CHOSEN --
------------------------------------------------------------------------------
------------------------------------------------------------------------------
                   ___                                                        
                  /   \      - P O W E R E D   B Y -                         
                 /     \                                                     
                 |  |  |   _    _      __       _____    __    __             
                 |  |  |  | |  | |    /  \     |  _  \  |  |  /  |          
                  \  \/   | |  | |   /    \    | | | |  |  | /  /          
                 / \  \   | |__| |  /  /\  \   | |_| |  |  |/  /          
                |  |  |   |  __  | /  /__\  \  |    /   |      \           
                |  |  |   | |  | | |   __   |  |    \   |  |\   \          
                \     /   | |  | | |  |  |  |  | |\  \  |  | \   \       
                 \___/    |_|  |_| |__|  |__|  |_| \__\ |__|  \__/        
                                                                              
                      - O R C A' S   B I G   F R I E N D -                    
                                      &                                       
                       - I N T E G R A L  F E E D E R -                       
                                                                              
 v1 FN, 2020, v2 2021, v3 2022-2024                                           
------------------------------------------------------------------------------


----------------------
SHARK INTEGRAL PACKAGE
----------------------

Number of atoms                             ...     15
Number of basis functions                   ...    312
Number of shells                            ...    120
Maximum angular momentum                    ...      3
Integral batch strategy                     ... SHARK/LIBINT Hybrid
RI-J (if used) integral strategy            ... SPLIT-RIJ (Revised 2003 algorithm where possible)
Printlevel                                  ...      1
Contraction scheme used                     ... SEGMENTED contraction
Prescreening option                         ... SCHWARTZ
   Thresh                                   ... 1.000e-12
   Tcut                                     ... 1.000e-14
   Tpresel                                  ... 1.000e-14 
Coulomb Range Separation                    ... NOT USED
Exchange Range Separation                   ... NOT USED
Multipole approximations                    ... NOT USED
Finite Nucleus Model                        ... NOT USED
CABS basis                                  ... NOT available
Auxiliary Coulomb fitting basis             ... AVAILABLE
   # of basis functions in Aux-J            ...    393
   # of shells in Aux-J                     ...    135
   Maximum angular momentum in Aux-J        ...      4
Auxiliary J/K fitting basis                 ... NOT available
Auxiliary Correlation fitting basis         ... AVAILABLE
   # of basis functions in Aux-C            ...    726
   # of shells in Aux-C                     ...    222
   Maximum angular momentum in Aux-C        ...      4
Auxiliary 'external' fitting basis          ... NOT available

Checking pre-screening integrals            ... done (  0.0 sec) Dimension = 120
   => SHARK Basis and OBASIS are compatible. Storing Pre-screening
Shell pair information
Shell pair cut-off parameter TPreSel        ...   1.0e-14
Total number of shell pairs                 ...      7260
Shell pairs after pre-screening             ...      6807
Total number of primitive shell pairs       ...     18687
Primitive shell pairs kept                  ...     14187
          la=0 lb=0:   1523 shell pairs
          la=1 lb=0:   1931 shell pairs
          la=1 lb=1:    637 shell pairs
          la=2 lb=0:   1112 shell pairs
          la=2 lb=1:    717 shell pairs
          la=2 lb=2:    217 shell pairs
          la=3 lb=0:    324 shell pairs
          la=3 lb=1:    207 shell pairs
          la=3 lb=2:    118 shell pairs
          la=3 lb=3:     21 shell pairs

Checking whether 4 symmetric matrices of dimension 312 fit in memory
:Max Core in MB      =   6000.00
 MB in use           =     11.81
 MB left             =   5988.19
 MB needed           =      1.49
 Data fit in memory  = YES
Calculating RI/J V-Matrix + Cholesky decomp.... done (  0.1 sec)
Calculating RI/C V-Matrix + Cholesky decomp.... done (  0.1 sec)
Calculating Nuclear repulsion               ... done (  0.0 sec) ENN=    226.826391116793 Eh

Diagonalization of the overlap matrix:
Smallest eigenvalue                        ... 8.057e-05
Time for diagonalization                   ...    0.013 sec
Threshold for overlap eigenvalues          ... 1.000e-07
Number of eigenvalues below threshold      ... 0
Time for construction of square roots      ...    0.051 sec
Total time needed                          ...    0.079 sec

-------------------
DFT GRID GENERATION
-------------------

General Integration Accuracy     IntAcc      ... 4.959
Radial Grid Type                 RadialGrid  ... OptM3 with GC (2021)
Angular Grid (max. ang.)         AngularGrid ... 6 (Lebedev-590)
Angular grid pruning method      GridPruning ... 4 (adaptive)
Weight generation scheme         WeightScheme... mBecke (2022)
Basis function cutoff            BFCut       ... 1.0000e-12
Integration weight cutoff        WCut        ... 1.0000e-14
Partially contracted basis set               ... off
Rotationally invariant grid construction     ... off
Angular grids for H and He will be reduced by one unit

Total number of grid points                  ...   164398
Total number of batches                      ...     2576
Average number of points per batch           ...       63
Average number of grid points per atom       ...    10960

--------------------
COSX GRID GENERATION
--------------------

GRIDX 1
-------
General Integration Accuracy     IntAcc      ... 4.020
Radial Grid Type                 RadialGrid  ... OptM3 with GC (2021)
Angular Grid (max. ang.)         AngularGrid ... 2 (Lebedev-110)
Angular grid pruning method      GridPruning ... 4 (adaptive)
Weight generation scheme         WeightScheme... mBecke (2022)
Basis function cutoff            BFCut       ... 1.0000e-12
Integration weight cutoff        WCut        ... 1.0000e-14
Partially contracted basis set               ... on
Rotationally invariant grid construction     ... off
Angular grids for H and He will be reduced by one unit

Total number of grid points                  ...    17694
Total number of batches                      ...      148
Average number of points per batch           ...      119
Average number of grid points per atom       ...     1180
UseSFitting                                  ... on

GRIDX 2
-------
General Integration Accuracy     IntAcc      ... 4.338
Radial Grid Type                 RadialGrid  ... OptM3 with GC (2021)
Angular Grid (max. ang.)         AngularGrid ... 3 (Lebedev-194)
Angular grid pruning method      GridPruning ... 4 (adaptive)
Weight generation scheme         WeightScheme... mBecke (2022)
Basis function cutoff            BFCut       ... 1.0000e-12
Integration weight cutoff        WCut        ... 1.0000e-14
Partially contracted basis set               ... on
Rotationally invariant grid construction     ... off
Angular grids for H and He will be reduced by one unit

Total number of grid points                  ...    38757
Total number of batches                      ...      309
Average number of points per batch           ...      125
Average number of grid points per atom       ...     2584
UseSFitting                                  ... on

GRIDX 3
-------
General Integration Accuracy     IntAcc      ... 4.871
Radial Grid Type                 RadialGrid  ... OptM3 with GC (2021)
Angular Grid (max. ang.)         AngularGrid ... 4 (Lebedev-302)
Angular grid pruning method      GridPruning ... 4 (adaptive)
Weight generation scheme         WeightScheme... mBecke (2022)
Basis function cutoff            BFCut       ... 1.0000e-12
Integration weight cutoff        WCut        ... 1.0000e-14
Partially contracted basis set               ... on
Rotationally invariant grid construction     ... off
Angular grids for H and He will be reduced by one unit

Total number of grid points                  ...    75983
Total number of batches                      ...      602
Average number of points per batch           ...      126
Average number of grid points per atom       ...     5066
UseSFitting                                  ... on
Grids setup in   4.0 sec
Initializing property integral containers    ... done (  0.1 sec)

SHARK setup successfully completed in   4.8 seconds

Maximum memory used throughout the entire STARTUP-calculation: 41.5 MB


           ************************************************************
           *        Program running with 8 parallel MPI-processes     *
           *              working on a common directory               *
           ************************************************************
-------------------------------------------------------------------------------
                                 ORCA GUESS
                   Start orbitals & Density for SCF / CASSCF
-------------------------------------------------------------------------------

------------
SCF SETTINGS
------------
Hamiltonian:
 Density Functional     Method          .... DFT(GTOs)
 Exchange Functional    Exchange        .... PBE
   PBE kappa parameter   XKappa         ....  0.804000
   PBE mue parameter    XMuePBE         ....  0.219520
 Correlation Functional Correlation     .... P86
 LDA part of GGA corr.  LDAOpt          .... VWN-5
 Gradients option       PostSCFGGA      .... off
 Hybrid DFT is turned on
   Fraction HF Exchange ScalHFX         ....  0.690000
   Scaling of DF-GGA-X  ScalDFX         ....  0.310000
   Scaling of DF-GGA-C  ScalDFC         ....  0.422400
   Scaling of DF-LDA-C  ScalLDAC        ....  0.422400
   Perturbative correction              ....  1.000000
 RI-approximation to the Coulomb term is turned on
   Number of AuxJ basis functions       .... 393
   RIJ-COSX (HFX calculated with COS-X)).... on


General Settings:
 Integral files         IntName         .... path_back
 Hartree-Fock type      HFTyp           .... UHF
 Total Charge           Charge          ....    0
 Multiplicity           Mult            ....    2
 Number of Electrons    NEL             ....   47
 Basis Dimension        Dim             ....  312
 Nuclear Repulsion      ENuc            ....    226.8263911168 Eh

Convergence Acceleration:
 AO-DIIS                CNVDIIS         .... on
   Start iteration      DIISMaxIt       ....    12
   Startup error        DIISStart       ....  0.200000
   # of expansion vecs  DIISMaxEq       ....     5
   Bias factor          DIISBfac        ....   1.050
   Max. coefficient     DIISMaxC        ....  10.000
 MO-DIIS                CNVKDIIS        .... off
 Trust-Rad. Augm. Hess. CNVTRAH         .... auto
   Auto Start mean grad. ratio tolernc. ....  1.125000
   Auto Start start iteration           ....    50
   Auto Start num. interpolation iter.  ....    10
   Max. Number of Micro iterations      ....    24
   Max. Number of Macro iterations      .... Maxiter - #DIIS iter
   Number of Davidson start vectors     ....     2
   Converg. threshold    (grad. norm)   ....   2.000e-06
   Grad. Scal. Fac. for Micro threshold ....   0.100
   Minimum threshold for Micro iter.    ....   1.000e-02
   NR start threshold (gradient norm)   ....   1.000e-04
   Initial trust radius                 ....   0.400
   Minimum AH scaling param. (alpha)    ....   1.000
   Maximum AH scaling param. (alpha)    .... 1000.000
   Quad. conv. algorithm                .... NR
   White noise on init. David. guess    .... on
   Maximum white noise                  ....   0.010
   Pseudo random numbers                .... off
   Inactive MOs                         .... canonical
   Orbital update algorithm             .... Taylor
   Preconditioner                       .... Diag
   Full preconditioner red. dimension   ....   250
 SOSCF                 CNVSOSCF           .... on
   Start iteration     SOSCFMaxIt         ....   150
   Startup grad/error  SOSCFStart         ....  0.003300
   Hessian update      SOSCFHessUp        .... L-BFGS
   Autom. constraints  SOSCFAutoConstrain .... off
 Level Shifting         CNVShift        .... on
   Level shift para.    LevelShift      ....    0.2500
   Turn off err/grad.   ShiftErr        ....    0.0010
 Zerner damping         CNVZerner       .... off
 Static damping         CNVDamp         .... on
   Fraction old density DampFac         ....    0.7000
   Max. Damping (<1)    DampMax         ....    0.9800
   Min. Damping (>=0)   DampMin         ....    0.0000
   Turn off err/grad.   DampErr         ....    0.1000

SCF Procedure:
 Maximum # iterations   MaxIter         ....   125
 SCF integral mode      SCFMode         .... Direct
   Integral package                     .... SHARK and LIBINT hybrid scheme
 Reset frequency        DirectResetFreq ....    20
 Integral Threshold     Thresh          ....  1.000e-12 Eh
 Primitive CutOff       TCut            ....  1.000e-14 Eh

Convergence Tolerance:
 Convergence Check Mode ConvCheckMode   .... Total+1el-Energy
 Convergence forced     ConvForced      .... 0
 Energy Change          TolE            ....  1.000e-09 Eh
 1-El. energy change                    ....  1.000e-06 Eh
 Orbital Gradient       TolG            ....  2.000e-06
 Orbital Rotation angle TolX            ....  2.000e-06
 DIIS Error             TolErr          ....  1.000e-08

------------------------------
INITIAL GUESS: MODEL POTENTIAL
------------------------------
Loading Hartree-Fock densities                     ... done
Calculating cut-offs                               ... done
Initializing the effective Hamiltonian             ... done
Setting up the integral package (SHARK)            ... done
Starting the Coulomb interaction                   ... done (   0.1 sec)
Making the grid                                    ... done (   0.2 sec)
Mapping shells                                     ... done
Starting the XC term evaluation                    ... done (   0.0 sec)
  promolecular density results
     # of electrons  =     46.994177833
     EX              =    -36.329528642
     EC              =      0.019922841
     EX+EC           =    -36.309605800
Transforming the Hamiltonian                       ... done (   0.1 sec)
Diagonalizing the Hamiltonian                      ... done (   0.0 sec)
Back transforming the eigenvectors                 ... done (   0.1 sec)
Now organizing SCF variables                       ... done
                      ------------------
                      INITIAL GUESS DONE (   0.6 sec)
                      ------------------
             **** ENERGY FILE WAS UPDATED (path_back.en.tmp) ****
Finished Guess after   3.7 sec
Maximum memory used throughout the entire GUESS-calculation: 17.8 MB


           ************************************************************
           *        Program running with 8 parallel MPI-processes     *
           *              working on a common directory               *
           ************************************************************

-------------------------------------------------------------------------------------------
                                      ORCA LEAN-SCF
                              memory conserving SCF solver
-------------------------------------------------------------------------------------------

----------------------------------------D-I-I-S--------------------------------------------
Iteration    Energy (Eh)           Delta-E    RMSDP     MaxDP     DIISErr   Damp  Time(sec)
-------------------------------------------------------------------------------------------
               ***  Starting incremental Fock matrix formation  ***
    1    -269.8405016466541610     0.00e+00  1.93e-03  3.09e-02  1.45e-01  0.700   5.5
    2    -269.9236125074950223    -8.31e-02  1.53e-03  2.83e-02  7.31e-02  0.700   4.4
                               ***Turning on AO-DIIS***
    3    -269.9685856223411520    -4.50e-02  6.35e-04  1.17e-02  4.05e-02  0.700   5.1
    4    -269.9975705244122537    -2.90e-02  1.69e-03  3.50e-02  3.21e-02  0.000   4.3
    5    -270.0714295545125196    -7.39e-02  8.05e-04  1.31e-02  1.74e-02  0.000   3.6
    6    -270.0768882897142475    -5.46e-03  8.31e-04  1.40e-02  1.44e-02  0.000   3.7
    7    -270.0813722561715622    -4.48e-03  4.86e-04  7.69e-03  1.20e-02  0.000   3.8
    8    -270.0838524348189367    -2.48e-03  4.22e-04  6.25e-03  8.21e-03  0.000   3.2
    9    -270.0852139889092314    -1.36e-03  2.09e-04  2.65e-03  5.58e-03  0.000   3.6
   10    -270.0857815601860921    -5.68e-04  1.59e-04  1.94e-03  3.40e-03  0.000   4.0
                              *** Initializing SOSCF ***
---------------------------------------S-O-S-C-F--------------------------------------
Iteration    Energy (Eh)           Delta-E    RMSDP     MaxDP     MaxGrad    Time(sec)
--------------------------------------------------------------------------------------
   11    -270.0860146725750610    -2.33e-04  7.88e-05  1.05e-03  1.99e-03     4.1
               *** Restarting incremental Fock matrix formation ***
   12    -270.0860871324717891    -7.25e-05  5.41e-05  7.88e-04  2.02e-03     4.5
   13    -270.0861252215230479    -3.81e-05  1.29e-04  2.01e-03  1.07e-03     5.1
   14    -270.0861718944985341    -4.67e-05  6.26e-05  1.33e-03  9.06e-04     4.3
   15    -270.0861927822222697    -2.09e-05  9.56e-05  2.16e-03  1.13e-03     4.4
   16    -270.0862170694493898    -2.43e-05  5.55e-05  1.24e-03  7.97e-04     5.1
   17    -270.0862256325887074    -8.56e-06  1.60e-05  2.13e-04  1.89e-04     4.8
   18    -270.0862270418194839    -1.41e-06  7.13e-06  1.08e-04  9.81e-05     4.5
   19    -270.0862274851615439    -4.43e-07  3.00e-06  4.81e-05  4.92e-05     4.6
   20    -270.0862275572385443    -7.21e-08  2.18e-06  5.54e-05  3.44e-05     4.4
   21    -270.0862275924749838    -3.52e-08  2.51e-06  8.19e-05  3.06e-05     4.3
   22    -270.0862276267274638    -3.43e-08  5.51e-06  1.82e-04  2.45e-05     4.3
   23    -270.0862276761984049    -4.95e-08  2.01e-06  5.83e-05  1.98e-05     4.5
   24    -270.0862276884288349    -1.22e-08  1.13e-06  1.98e-05  1.63e-05     4.1
   25    -270.0862276929512973    -4.52e-09  3.61e-07  5.57e-06  8.88e-06     4.8
   26    -270.0862276937832576    -8.32e-10  2.01e-07  3.56e-06  3.92e-06     3.7
                 **** Energy Check signals convergence ****

               *****************************************************
               *                     SUCCESS                       *
               *           SCF CONVERGED AFTER  26 CYCLES          *
               *****************************************************

Recomputing exchange energy using gridx3       ... done (    4.996 sec)
Old exchange energy                            :    -25.788514546 Eh
New exchange energy                            :    -25.788510801 Eh
Exchange energy change after final integration :      0.000003744 Eh
Total energy after final integration           :   -270.086223950 Eh
             **** ENERGY FILE WAS UPDATED (path_back.en.tmp) ****

----------------
TOTAL SCF ENERGY
----------------

Total Energy       :       -270.08622394992341 Eh           -7349.41979 eV

Components:
Nuclear Repulsion  :        226.82639111679308 Eh            6172.25989 eV
Electronic Energy  :       -496.91261881095653 Eh          -13521.67979 eV
One Electron Energy:       -815.21450897996192 Eh          -22183.11456 eV
Two Electron Energy:        318.30189016900539 Eh            8661.43477 eV

Virial components:
Potential Energy   :       -539.58567885731964 Eh          -14682.87278 eV
Kinetic Energy     :        269.49945490739628 Eh            7333.45299 eV
Virial Ratio       :          2.00217725502535

DFT components:
N(Alpha)           :       24.000000190722 electrons
N(Beta)            :       23.000000263574 electrons
N(Total)           :       47.000000454296 electrons
E(X)               :      -11.528488994669 Eh       
E(C)               :       -0.711821706555 Eh       
E(XC)              :      -12.240310701225 Eh       

---------------
SCF CONVERGENCE
---------------

  Last Energy change         ...    8.3196e-10  Tolerance :   1.0000e-09
  Last MAX-Density change    ...    3.5554e-06  Tolerance :   1.0000e-08
  Last RMS-Density change    ...    2.0050e-07  Tolerance :   1.0000e-09
  Last DIIS Error            ...    1.9857e-03  Tolerance :   1.0000e-08
  Last Orbital Gradient      ...    3.9218e-06  Tolerance :   2.0000e-06
  Last Orbital Rotation      ...    1.7542e-05  Tolerance :   2.0000e-06


----------------------
UHF SPIN CONTAMINATION
----------------------

Warning: in a DFT calculation there is little theoretical justification to 
         calculate <S**2> as in Hartree-Fock theory. We will do it anyways
         but you should keep in mind that the values have only limited relevance

Expectation value of <S**2>     :     0.770209
Ideal value S*(S+1) for S=0.5   :     0.750000
Deviation                       :     0.020209

----------------
ORBITAL ENERGIES
----------------
                 SPIN UP ORBITALS
  NO   OCC          E(Eh)            E(eV) 
   0   1.0000     -20.061733      -545.9075 
   1   1.0000     -10.813264      -294.2439 
   2   1.0000     -10.811792      -294.2038 
   3   1.0000     -10.811083      -294.1845 
   4   1.0000     -10.808954      -294.1266 
   5   1.0000     -10.808856      -294.1239 
   6   1.0000      -1.248214       -33.9656 
   7   1.0000      -1.027491       -27.9595 
   8   1.0000      -0.873200       -23.7610 
   9   1.0000      -0.865975       -23.5644 
  10   1.0000      -0.711510       -19.3612 
  11   1.0000      -0.687029       -18.6950 
  12   1.0000      -0.630151       -17.1473 
  13   1.0000      -0.595576       -16.2064 
  14   1.0000      -0.576195       -15.6791 
  15   1.0000      -0.544986       -14.8298 
  16   1.0000      -0.497876       -13.5479 
  17   1.0000      -0.477820       -13.0021 
  18   1.0000      -0.468762       -12.7557 
  19   1.0000      -0.438577       -11.9343 
  20   1.0000      -0.434043       -11.8109 
  21   1.0000      -0.431760       -11.7488 
  22   1.0000      -0.392681       -10.6854 
  23   1.0000      -0.311889        -8.4869 
  24   0.0000       0.093766         2.5515 
  25   0.0000       0.101702         2.7675 
  26   0.0000       0.112420         3.0591 
  27   0.0000       0.138911         3.7800 
  28   0.0000       0.143944         3.9169 
  29   0.0000       0.156908         4.2697 
  30   0.0000       0.167072         4.5463 
  31   0.0000       0.189513         5.1569 
  32   0.0000       0.200247         5.4490 
  33   0.0000       0.235476         6.4076 
  34   0.0000       0.244503         6.6533 

                 SPIN DOWN ORBITALS
  NO   OCC          E(Eh)            E(eV) 
   0   1.0000     -20.030325      -545.0528 
   1   1.0000     -10.811281      -294.1899 
   2   1.0000     -10.810987      -294.1819 
   3   1.0000     -10.810621      -294.1719 
   4   1.0000     -10.808632      -294.1178 
   5   1.0000     -10.804040      -293.9929 
   6   1.0000      -1.143439       -31.1146 
   7   1.0000      -1.021925       -27.8080 
   8   1.0000      -0.868597       -23.6357 
   9   1.0000      -0.859337       -23.3837 
  10   1.0000      -0.708428       -19.2773 
  11   1.0000      -0.647376       -17.6160 
  12   1.0000      -0.610270       -16.6063 
  13   1.0000      -0.575604       -15.6630 
  14   1.0000      -0.562871       -15.3165 
  15   1.0000      -0.497561       -13.5393 
  16   1.0000      -0.476247       -12.9593 
  17   1.0000      -0.442723       -12.0471 
  18   1.0000      -0.436279       -11.8718 
  19   1.0000      -0.434446       -11.8219 
  20   1.0000      -0.431242       -11.7347 
  21   1.0000      -0.423003       -11.5105 
  22   1.0000      -0.309065        -8.4101 
  23   0.0000      -0.008235        -0.2241 
  24   0.0000       0.096688         2.6310 
  25   0.0000       0.105813         2.8793 
  26   0.0000       0.118124         3.2143 
  27   0.0000       0.139242         3.7890 
  28   0.0000       0.144640         3.9359 
  29   0.0000       0.157609         4.2888 
  30   0.0000       0.167722         4.5639 
  31   0.0000       0.189712         5.1623 
  32   0.0000       0.200767         5.4631 
  33   0.0000       0.237935         6.4745 
*Only the first 10 virtual orbitals were printed.

                    ********************************
                    * MULLIKEN POPULATION ANALYSIS *
                    ********************************

--------------------------------------------
MULLIKEN ATOMIC CHARGES AND SPIN POPULATIONS
--------------------------------------------
   0 C :   -0.182501   -0.106215
   1 C :   -0.194553    0.312350
   2 H :    0.109963    0.009401
   3 C :   -0.063935   -0.006364
   4 H :    0.175086   -0.069664
   5 C :   -0.148294    0.010021
   6 H :    0.075709    0.002426
   7 H :    0.063713    0.003839
   8 C :   -0.062618    0.025300
   9 H :    0.072603   -0.000353
  10 H :    0.072889    0.001172
  11 H :    0.070423   -0.003462
  12 H :    0.063741   -0.003525
  13 O :   -0.283914    0.849700
  14 H :    0.231689   -0.024626
Sum of atomic charges         :   -0.0000000
Sum of atomic spin populations:    1.0000000

-----------------------------------------------------
MULLIKEN REDUCED ORBITAL CHARGES AND SPIN POPULATIONS
-----------------------------------------------------
CHARGE
  0 C s       :     3.173879  s :     3.173879
      pz      :     0.961137  p :     2.889367
      px      :     0.923398
      py      :     1.004832
      dz2     :     0.004796  d :     0.111392
      dxz     :     0.016638
      dyz     :     0.014316
      dx2y2   :     0.042814
      dxy     :     0.032827
      f0      :     0.001245  f :     0.007863
      f+1     :     0.000773
      f-1     :     0.000668
      f+2     :     0.000767
      f-2     :     0.000645
      f+3     :     0.001428
      f-3     :     0.002336

  1 C s       :     3.196313  s :     3.196313
      pz      :     0.952589  p :     2.887420
      px      :     0.982575
      py      :     0.952256
      dz2     :     0.002239  d :     0.102962
      dxz     :     0.007071
      dyz     :     0.025664
      dx2y2   :     0.035522
      dxy     :     0.032466
      f0      :     0.001268  f :     0.007859
      f+1     :     0.000684
      f-1     :     0.000692
      f+2     :     0.000277
      f-2     :     0.001183
      f+3     :     0.001286
      f-3     :     0.002470

  2 H s       :     0.851248  s :     0.851248
      pz      :     0.010665  p :     0.036851
      px      :     0.010934
      py      :     0.015253
      dz2     :     0.000136  d :     0.001937
      dxz     :     0.000050
      dyz     :     0.000547
      dx2y2   :     0.000611
      dxy     :     0.000593

  3 C s       :     3.081901  s :     3.081901
      pz      :     1.024789  p :     2.864630
      px      :     0.890708
      py      :     0.949134
      dz2     :     0.018974  d :     0.111342
      dxz     :     0.014721
      dyz     :     0.031482
      dx2y2   :     0.022844
      dxy     :     0.023320
      f0      :     0.000764  f :     0.006062
      f+1     :     0.000522
      f-1     :     0.000765
      f+2     :     0.000623
      f-2     :     0.000642
      f+3     :     0.001397
      f-3     :     0.001348

  4 H s       :     0.750710  s :     0.750710
      pz      :     0.016701  p :     0.070006
      px      :     0.037390
      py      :     0.015915
      dz2     :     0.000548  d :     0.004198
      dxz     :     0.000712
      dyz     :     0.000083
      dx2y2   :     0.001607
      dxy     :     0.001247

  5 C s       :     3.135673  s :     3.135673
      pz      :     1.054790  p :     2.903928
      px      :     0.945429
      py      :     0.903709
      dz2     :     0.019877  d :     0.102668
      dxz     :     0.020388
      dyz     :     0.016950
      dx2y2   :     0.021175
      dxy     :     0.024278
      f0      :     0.000803  f :     0.006026
      f+1     :     0.000579
      f-1     :     0.000545
      f+2     :     0.000711
      f-2     :     0.000554
      f+3     :     0.001418
      f-3     :     0.001415

  6 H s       :     0.882190  s :     0.882190
      pz      :     0.012983  p :     0.040006
      px      :     0.009784
      py      :     0.017238
      dz2     :     0.000569  d :     0.002096
      dxz     :     0.000269
      dyz     :     0.000394
      dx2y2   :     0.000395
      dxy     :     0.000469

  7 H s       :     0.894130  s :     0.894130
      pz      :     0.019116  p :     0.040053
      px      :     0.009350
      py      :     0.011587
      dz2     :     0.000587  d :     0.002104
      dxz     :     0.000623
      dyz     :     0.000651
      dx2y2   :     0.000112
      dxy     :     0.000131

  8 C s       :     3.082279  s :     3.082279
      pz      :     1.021021  p :     2.861639
      px      :     0.911876
      py      :     0.928741
      dz2     :     0.019307  d :     0.112617
      dxz     :     0.026408
      dyz     :     0.020316
      dx2y2   :     0.022271
      dxy     :     0.024314
      f0      :     0.000781  f :     0.006084
      f+1     :     0.000643
      f-1     :     0.000633
      f+2     :     0.000905
      f-2     :     0.000356
      f+3     :     0.001405
      f-3     :     0.001362

  9 H s       :     0.886279  s :     0.886279
      pz      :     0.018909  p :     0.039008
      px      :     0.010505
      py      :     0.009594
      dz2     :     0.000555  d :     0.002110
      dxz     :     0.000683
      dyz     :     0.000684
      dx2y2   :     0.000109
      dxy     :     0.000080

 10 H s       :     0.885805  s :     0.885805
      pz      :     0.012504  p :     0.039240
      px      :     0.014954
      py      :     0.011782
      dz2     :     0.000521  d :     0.002066
      dxz     :     0.000353
      dyz     :     0.000276
      dx2y2   :     0.000553
      dxy     :     0.000362

 11 H s       :     0.887810  s :     0.887810
      pz      :     0.012863  p :     0.039679
      px      :     0.013922
      py      :     0.012895
      dz2     :     0.000560  d :     0.002088
      dxz     :     0.000334
      dyz     :     0.000326
      dx2y2   :     0.000550
      dxy     :     0.000318

 12 H s       :     0.894721  s :     0.894721
      pz      :     0.018983  p :     0.039452
      px      :     0.010175
      py      :     0.010295
      dz2     :     0.000581  d :     0.002085
      dxz     :     0.000642
      dyz     :     0.000631
      dx2y2   :     0.000149
      dxy     :     0.000082

 13 O s       :     3.873155  s :     3.873155
      pz      :     1.442584  p :     4.395985
      px      :     1.091892
      py      :     1.861509
      dz2     :     0.006369  d :     0.014310
      dxz     :     0.000678
      dyz     :     0.003303
      dx2y2   :     0.003704
      dxy     :     0.000256
      f0      :     0.000061  f :     0.000463
      f+1     :     0.000014
      f-1     :     0.000195
      f+2     :     0.000030
      f-2     :     0.000015
      f+3     :     0.000106
      f-3     :     0.000042

 14 H s       :     0.681081  s :     0.681081
      pz      :     0.027819  p :     0.079026
      px      :     0.016285
      py      :     0.034922
      dz2     :     0.003271  d :     0.008204
      dxz     :     0.001300
      dyz     :     0.002929
      dx2y2   :     0.000488
      dxy     :     0.000215


SPIN
  0 C s       :    -0.014995  s :    -0.014995
      pz      :    -0.076083  p :    -0.096202
      px      :    -0.009652
      py      :    -0.010467
      dz2     :     0.000341  d :     0.004375
      dxz     :     0.000137
      dyz     :     0.000871
      dx2y2   :     0.003007
      dxy     :     0.000019
      f0      :     0.000104  f :     0.000606
      f+1     :     0.000047
      f-1     :     0.000063
      f+2     :     0.000023
      f-2     :     0.000058
      f+3     :     0.000028
      f-3     :     0.000284

  1 C s       :     0.055689  s :     0.055689
      pz      :     0.081074  p :     0.259384
      px      :     0.163329
      py      :     0.014981
      dz2     :    -0.000351  d :    -0.002587
      dxz     :    -0.001055
      dyz     :    -0.000840
      dx2y2   :    -0.000080
      dxy     :    -0.000261
      f0      :     0.000008  f :    -0.000136
      f+1     :     0.000057
      f-1     :    -0.000001
      f+2     :    -0.000074
      f-2     :    -0.000047
      f+3     :    -0.000064
      f-3     :    -0.000015

  2 H s       :     0.010179  s :     0.010179
      pz      :    -0.000826  p :    -0.000722
      px      :    -0.000031
      py      :     0.000135
      dz2     :     0.000002  d :    -0.000055
      dxz     :    -0.000008
      dyz     :    -0.000045
      dx2y2   :    -0.000001
      dxy     :    -0.000004

  3 C s       :    -0.001898  s :    -0.001898
      pz      :    -0.004514  p :    -0.008342
      px      :    -0.001196
      py      :    -0.002632
      dz2     :     0.000442  d :     0.003570
      dxz     :    -0.000044
      dyz     :     0.001398
      dx2y2   :     0.001778
      dxy     :    -0.000004
      f0      :     0.000029  f :     0.000307
      f+1     :     0.000009
      f-1     :     0.000019
      f+2     :     0.000025
      f-2     :     0.000043
      f+3     :     0.000050
      f-3     :     0.000131

  4 H s       :    -0.082056  s :    -0.082056
      pz      :     0.000275  p :     0.011721
      px      :     0.011314
      py      :     0.000133
      dz2     :     0.000127  d :     0.000670
      dxz     :     0.000106
      dyz     :    -0.000002
      dx2y2   :     0.000404
      dxy     :     0.000036

  5 C s       :     0.001792  s :     0.001792
      pz      :     0.000785  p :     0.007645
      px      :     0.006721
      py      :     0.000139
      dz2     :    -0.000117  d :     0.000532
      dxz     :     0.000051
      dyz     :     0.000093
      dx2y2   :     0.000296
      dxy     :     0.000209
      f0      :    -0.000001  f :     0.000051
      f+1     :    -0.000001
      f-1     :     0.000002
      f+2     :     0.000000
      f-2     :     0.000001
      f+3     :     0.000028
      f-3     :     0.000022

  6 H s       :     0.002402  s :     0.002402
      pz      :    -0.000037  p :     0.000014
      px      :     0.000032
      py      :     0.000019
      dz2     :     0.000001  d :     0.000010
      dxz     :     0.000001
      dyz     :     0.000002
      dx2y2   :     0.000005
      dxy     :     0.000002

  7 H s       :     0.003775  s :     0.003775
      pz      :     0.000025  p :     0.000055
      px      :    -0.000020
      py      :     0.000049
      dz2     :     0.000002  d :     0.000009
      dxz     :     0.000002
      dyz     :     0.000003
      dx2y2   :     0.000002
      dxy     :     0.000001

  8 C s       :     0.004808  s :     0.004808
      pz      :     0.005459  p :     0.022002
      px      :     0.014926
      py      :     0.001617
      dz2     :    -0.000293  d :    -0.001474
      dxz     :    -0.001613
      dyz     :     0.000097
      dx2y2   :     0.000197
      dxy     :     0.000138
      f0      :    -0.000028  f :    -0.000036
      f+1     :    -0.000006
      f-1     :     0.000002
      f+2     :    -0.000029
      f-2     :    -0.000015
      f+3     :     0.000004
      f-3     :     0.000036

  9 H s       :    -0.000454  s :    -0.000454
      pz      :     0.000020  p :     0.000094
      px      :     0.000083
      py      :    -0.000009
      dz2     :     0.000001  d :     0.000007
      dxz     :     0.000006
      dyz     :     0.000000
      dx2y2   :    -0.000000
      dxy     :    -0.000000

 10 H s       :     0.000989  s :     0.000989
      pz      :     0.000011  p :     0.000172
      px      :     0.000185
      py      :    -0.000024
      dz2     :     0.000005  d :     0.000012
      dxz     :    -0.000000
      dyz     :     0.000003
      dx2y2   :     0.000006
      dxy     :    -0.000001

 11 H s       :    -0.003606  s :    -0.003606
      pz      :     0.000016  p :     0.000135
      px      :     0.000178
      py      :    -0.000060
      dz2     :     0.000004  d :     0.000010
      dxz     :     0.000001
      dyz     :     0.000001
      dx2y2   :     0.000002
      dxy     :     0.000002

 12 H s       :    -0.003624  s :    -0.003624
      pz      :    -0.000019  p :     0.000092
      px      :     0.000143
      py      :    -0.000032
      dz2     :    -0.000001  d :     0.000007
      dxz     :     0.000008
      dyz     :    -0.000001
      dx2y2   :    -0.000001
      dxy     :     0.000001

 13 O s       :     0.015496  s :     0.015496
      pz      :     0.019451  p :     0.834560
      px      :     0.809046
      py      :     0.006063
      dz2     :    -0.000434  d :    -0.000293
      dxz     :     0.000544
      dyz     :     0.000064
      dx2y2   :    -0.000563
      dxy     :     0.000095
      f0      :    -0.000126  f :    -0.000063
      f+1     :     0.000010
      f-1     :    -0.000032
      f+2     :    -0.000022
      f-2     :     0.000011
      f+3     :     0.000056
      f-3     :     0.000040

 14 H s       :    -0.031128  s :    -0.031128
      pz      :    -0.000456  p :     0.005463
      px      :     0.007682
      py      :    -0.001763
      dz2     :    -0.000018  d :     0.001039
      dxz     :     0.000928
      dyz     :     0.000019
      dx2y2   :    -0.000047
      dxy     :     0.000157



                     *******************************
                     * LOEWDIN POPULATION ANALYSIS *
                     *******************************

-------------------------------------------
LOEWDIN ATOMIC CHARGES AND SPIN POPULATIONS
-------------------------------------------
   0 C :   -0.013080   -0.037802
   1 C :    0.013714    0.177445
   2 H :    0.003665   -0.002725
   3 C :   -0.013049    0.013867
   4 H :   -0.125348    0.082948
   5 C :    0.005738    0.007679
   6 H :    0.013534    0.000817
   7 H :    0.014773    0.001890
   8 C :   -0.015963    0.004953
   9 H :    0.014418    0.000229
  10 H :    0.004582    0.001294
  11 H :    0.010307   -0.000977
  12 H :    0.013005   -0.001012
  13 O :    0.214352    0.716440
  14 H :   -0.140647    0.034955

----------------------------------------------------
LOEWDIN REDUCED ORBITAL CHARGES AND SPIN POPULATIONS
----------------------------------------------------
CHARGE
  0 C s       :     2.734639  s :     2.734639
      pz      :     0.847140  p :     2.843486
      px      :     0.965314
      py      :     1.031032
      dz2     :     0.028194  d :     0.391349
      dxz     :     0.061041
      dyz     :     0.033378
      dx2y2   :     0.143125
      dxy     :     0.125610
      f0      :     0.002420  f :     0.043606
      f+1     :     0.003409
      f-1     :     0.003566
      f+2     :     0.004348
      f-2     :     0.004734
      f+3     :     0.008835
      f-3     :     0.016295

  1 C s       :     2.736223  s :     2.736223
      pz      :     0.852838  p :     2.804827
      px      :     0.930810
      py      :     1.021178
      dz2     :     0.029820  d :     0.400948
      dxz     :     0.019531
      dyz     :     0.078827
      dx2y2   :     0.155834
      dxy     :     0.116936
      f0      :     0.002587  f :     0.044288
      f+1     :     0.003162
      f-1     :     0.003859
      f+2     :     0.001753
      f-2     :     0.007205
      f+3     :     0.008422
      f-3     :     0.017301

  2 H s       :     0.817681  s :     0.817681
      pz      :     0.041608  p :     0.151218
      px      :     0.043679
      py      :     0.065932
      dz2     :     0.002556  d :     0.027436
      dxz     :     0.000997
      dyz     :     0.007106
      dx2y2   :     0.008119
      dxy     :     0.008658

  3 C s       :     2.690284  s :     2.690284
      pz      :     1.000280  p :     2.876755
      px      :     0.921942
      py      :     0.954534
      dz2     :     0.068438  d :     0.403652
      dxz     :     0.052737
      dyz     :     0.097687
      dx2y2   :     0.088857
      dxy     :     0.095933
      f0      :     0.004715  f :     0.042357
      f+1     :     0.004587
      f-1     :     0.004242
      f+2     :     0.005411
      f-2     :     0.005449
      f+3     :     0.008667
      f-3     :     0.009285

  4 H s       :     0.730325  s :     0.730325
      pz      :     0.051108  p :     0.349931
      px      :     0.246433
      py      :     0.052389
      dz2     :     0.005728  d :     0.045092
      dxz     :     0.010936
      dyz     :     0.000384
      dx2y2   :     0.015880
      dxy     :     0.012164

  5 C s       :     2.694872  s :     2.694872
      pz      :     1.006353  p :     2.866925
      px      :     0.936606
      py      :     0.923966
      dz2     :     0.074531  d :     0.391575
      dxz     :     0.071458
      dyz     :     0.058765
      dx2y2   :     0.092811
      dxy     :     0.094010
      f0      :     0.005115  f :     0.040890
      f+1     :     0.003824
      f-1     :     0.004318
      f+2     :     0.005357
      f-2     :     0.005277
      f+3     :     0.009683
      f-3     :     0.007315

  6 H s       :     0.810378  s :     0.810378
      pz      :     0.052260  p :     0.147414
      px      :     0.040145
      py      :     0.055009
      dz2     :     0.007491  d :     0.028674
      dxz     :     0.003419
      dyz     :     0.006995
      dx2y2   :     0.005158
      dxy     :     0.005611

  7 H s       :     0.808561  s :     0.808561
      pz      :     0.066976  p :     0.148197
      px      :     0.038850
      py      :     0.042371
      dz2     :     0.009478  d :     0.028469
      dxz     :     0.007467
      dyz     :     0.008775
      dx2y2   :     0.001257
      dxy     :     0.001491

  8 C s       :     2.691266  s :     2.691266
      pz      :     1.000561  p :     2.877083
      px      :     0.943478
      py      :     0.933045
      dz2     :     0.068875  d :     0.405473
      dxz     :     0.079704
      dyz     :     0.069995
      dx2y2   :     0.094904
      dxy     :     0.091995
      f0      :     0.004780  f :     0.042141
      f+1     :     0.004332
      f-1     :     0.004486
      f+2     :     0.006214
      f-2     :     0.004623
      f+3     :     0.009086
      f-3     :     0.008620

  9 H s       :     0.807882  s :     0.807882
      pz      :     0.068581  p :     0.148581
      px      :     0.040645
      py      :     0.039355
      dz2     :     0.009653  d :     0.029118
      dxz     :     0.009054
      dyz     :     0.008437
      dx2y2   :     0.001191
      dxy     :     0.000783

 10 H s       :     0.816979  s :     0.816979
      pz      :     0.050150  p :     0.149675
      px      :     0.054261
      py      :     0.045264
      dz2     :     0.007196  d :     0.028764
      dxz     :     0.005985
      dyz     :     0.003949
      dx2y2   :     0.006223
      dxy     :     0.005411

 11 H s       :     0.812934  s :     0.812934
      pz      :     0.051917  p :     0.148135
      px      :     0.049072
      py      :     0.047146
      dz2     :     0.007468  d :     0.028624
      dxz     :     0.005320
      dyz     :     0.004958
      dx2y2   :     0.006103
      dxy     :     0.004776

 12 H s       :     0.809609  s :     0.809609
      pz      :     0.067065  p :     0.148927
      px      :     0.041594
      py      :     0.040268
      dz2     :     0.009448  d :     0.028459
      dxz     :     0.008296
      dyz     :     0.008051
      dx2y2   :     0.001727
      dxy     :     0.000937

 13 O s       :     3.454324  s :     3.454324
      pz      :     1.507140  p :     4.298526
      px      :     1.028026
      py      :     1.763360
      dz2     :     0.013196  d :     0.030904
      dxz     :     0.000693
      dyz     :     0.006010
      dx2y2   :     0.010917
      dxy     :     0.000088
      f0      :     0.000484  f :     0.001893
      f+1     :     0.000315
      f-1     :     0.000581
      f+2     :     0.000127
      f-2     :     0.000043
      f+3     :     0.000302
      f-3     :     0.000040

 14 H s       :     0.701695  s :     0.701695
      pz      :     0.168441  p :     0.345093
      px      :     0.054843
      py      :     0.121808
      dz2     :     0.034999  d :     0.093860
      dxz     :     0.018535
      dyz     :     0.031940
      dx2y2   :     0.005346
      dxy     :     0.003039


SPIN
  0 C s       :    -0.002310  s :    -0.002310
      pz      :    -0.051867  p :    -0.057788
      px      :    -0.005208
      py      :    -0.000712
      dz2     :     0.000884  d :     0.018921
      dxz     :     0.001663
      dyz     :     0.003783
      dx2y2   :     0.009175
      dxy     :     0.003416
      f0      :     0.000298  f :     0.003374
      f+1     :     0.000093
      f-1     :     0.000115
      f+2     :     0.000155
      f-2     :     0.000474
      f+3     :     0.000132
      f-3     :     0.002106

  1 C s       :     0.018253  s :     0.018253
      pz      :     0.055096  p :     0.174380
      px      :     0.113828
      py      :     0.005455
      dz2     :    -0.000344  d :    -0.013964
      dxz     :    -0.001594
      dyz     :    -0.003848
      dx2y2   :    -0.006970
      dxy     :    -0.001207
      f0      :    -0.000267  f :    -0.001224
      f+1     :    -0.000221
      f-1     :    -0.000032
      f+2     :    -0.000173
      f-2     :    -0.000416
      f+3     :    -0.000003
      f-3     :    -0.000111

  2 H s       :     0.003312  s :     0.003312
      pz      :    -0.003869  p :    -0.005085
      px      :    -0.000395
      py      :    -0.000821
      dz2     :    -0.000012  d :    -0.000952
      dxz     :    -0.000101
      dyz     :    -0.000651
      dx2y2   :    -0.000087
      dxy     :    -0.000100

  3 C s       :     0.000224  s :     0.000224
      pz      :    -0.000366  p :     0.000221
      px      :     0.000555
      py      :     0.000032
      dz2     :     0.001435  d :     0.011559
      dxz     :     0.000766
      dyz     :     0.003669
      dx2y2   :     0.004834
      dxy     :     0.000855
      f0      :     0.000172  f :     0.001863
      f+1     :     0.000060
      f-1     :     0.000072
      f+2     :     0.000116
      f-2     :     0.000277
      f+3     :     0.000176
      f-3     :     0.000990

  4 H s       :    -0.029844  s :    -0.029844
      pz      :     0.003692  p :     0.104071
      px      :     0.100707
      py      :    -0.000328
      dz2     :     0.001348  d :     0.008721
      dxz     :     0.002667
      dyz     :     0.000010
      dx2y2   :     0.004332
      dxy     :     0.000363

  5 C s       :     0.001022  s :     0.001022
      pz      :     0.000320  p :     0.005006
      px      :     0.004789
      py      :    -0.000103
      dz2     :    -0.000078  d :     0.001403
      dxz     :    -0.000005
      dyz     :     0.000135
      dx2y2   :     0.001186
      dxy     :     0.000165
      f0      :     0.000001  f :     0.000247
      f+1     :     0.000007
      f-1     :     0.000006
      f+2     :    -0.000001
      f-2     :     0.000005
      f+3     :     0.000188
      f-3     :     0.000042

  6 H s       :     0.001151  s :     0.001151
      pz      :    -0.000041  p :    -0.000330
      px      :    -0.000074
      py      :    -0.000214
      dz2     :    -0.000021  d :    -0.000004
      dxz     :    -0.000002
      dyz     :     0.000011
      dx2y2   :     0.000028
      dxy     :    -0.000020

  7 H s       :     0.001945  s :     0.001945
      pz      :     0.000025  p :    -0.000069
      px      :     0.000059
      py      :    -0.000152
      dz2     :    -0.000003  d :     0.000014
      dxz     :     0.000013
      dyz     :    -0.000012
      dx2y2   :     0.000019
      dxy     :    -0.000004

  8 C s       :     0.001615  s :     0.001615
      pz      :     0.001190  p :     0.009351
      px      :     0.007626
      py      :     0.000535
      dz2     :    -0.000912  d :    -0.005629
      dxz     :    -0.004653
      dyz     :    -0.000059
      dx2y2   :     0.000113
      dxy     :    -0.000118
      f0      :    -0.000144  f :    -0.000383
      f+1     :    -0.000055
      f-1     :     0.000003
      f+2     :    -0.000209
      f-2     :    -0.000088
      f+3     :    -0.000009
      f-3     :     0.000119

  9 H s       :    -0.000124  s :    -0.000124
      pz      :     0.000043  p :     0.000281
      px      :     0.000279
      py      :    -0.000040
      dz2     :     0.000002  d :     0.000072
      dxz     :     0.000075
      dyz     :    -0.000005
      dx2y2   :    -0.000001
      dxy     :     0.000001

 10 H s       :     0.000668  s :     0.000668
      pz      :     0.000023  p :     0.000550
      px      :     0.000517
      py      :     0.000010
      dz2     :     0.000027  d :     0.000076
      dxz     :    -0.000001
      dyz     :     0.000012
      dx2y2   :     0.000043
      dxy     :    -0.000005

 11 H s       :    -0.001759  s :    -0.001759
      pz      :     0.000098  p :     0.000634
      px      :     0.000537
      py      :    -0.000002
      dz2     :     0.000048  d :     0.000149
      dxz     :     0.000015
      dyz     :     0.000021
      dx2y2   :     0.000039
      dxy     :     0.000026

 12 H s       :    -0.001848  s :    -0.001848
      pz      :     0.000059  p :     0.000695
      px      :     0.000639
      py      :    -0.000002
      dz2     :     0.000017  d :     0.000141
      dxz     :     0.000103
      dyz     :     0.000008
      dx2y2   :     0.000006
      dxy     :     0.000007

 13 O s       :     0.011323  s :     0.011323
      pz      :     0.010100  p :     0.706596
      px      :     0.691072
      py      :     0.005425
      dz2     :    -0.000593  d :    -0.001437
      dxz     :    -0.000058
      dyz     :    -0.000296
[...]
     40      -0.000029  -0.000082  -0.000002  -0.000030  -0.000015   0.000008
     41       0.000318  -0.000192  -0.000020   0.000025  -0.000052   0.000289
     42       0.002550  -0.002488  -0.000790  -0.000237   0.000817   0.002544
     43       0.001459   0.001408  -0.000028   0.001055   0.000370  -0.000115
     44      -0.004321   0.001738   0.000133  -0.000644   0.000997  -0.003692
                 42         43         44    
      0      -0.022913  -0.019602   0.000290
      1      -0.051808  -0.059272  -0.001043
      2      -0.020158  -0.018033   0.000430
      3       0.046307  -0.051292  -0.000504
      4      -0.008981   0.017319   0.001017
      5       0.034928  -0.038341  -0.000049
      6       0.266828   0.257311   0.000479
      7       0.617196   0.605051   0.001135
      8       0.234134   0.226688  -0.000084
      9      -0.000876   0.000803  -0.000026
     10      -0.002185   0.003590   0.000337
     11       0.000373   0.000138   0.000298
     12      -0.549278   0.560170   0.000325
     13       0.115247  -0.122263  -0.000405
     14      -0.412480   0.420787  -0.000326
     15      -0.000117   0.001548   0.000019
     16       0.000393   0.000768   0.000087
     17      -0.000046   0.000594   0.000310
     18       0.006085  -0.006959  -0.000425
     19       0.015915  -0.022543  -0.001098
     20      -0.010973   0.014229  -0.000865
     21       0.000443   0.003990   0.001451
     22       0.000581  -0.004569  -0.003101
     23       0.001791  -0.007930  -0.003880
     24       0.002206   0.002876   0.000163
     25      -0.001005  -0.001666  -0.000098
     26       0.000455   0.001454   0.000271
     27       0.000037  -0.006891   0.000992
     28      -0.000377  -0.001351   0.000174
     29       0.000126   0.005514  -0.000944
     30       0.000011  -0.003455  -0.001390
     31      -0.000708  -0.003497  -0.001333
     32      -0.000409  -0.008305  -0.002842
     33      -0.017151  -0.021856  -0.001319
     34       0.010921   0.015250   0.000253
     35       0.004317   0.004427  -0.000862
     36      -0.000464   0.001207  -0.000757
     37      -0.000617   0.002131   0.001012
     38      -0.002037  -0.009404  -0.003752
     39      -0.000042  -0.000002   0.023454
     40       0.000037   0.000021  -0.007011
     41       0.000032   0.000140  -0.058044
     42       0.000953  -0.001015  -0.370929
     43      -0.001067  -0.000719   0.111063
     44      -0.000285  -0.002554   0.919806


-----------
IR SPECTRUM
-----------

 Mode   freq       eps      Int      T**2         TX        TY        TZ
       cm**-1   L/(mol*cm) km/mol    a.u.
----------------------------------------------------------------------------
  6:     45.78   0.000617    3.12  0.004203  ( 0.056908  0.031032  0.001149)
  7:     65.73   0.000444    2.24  0.002106  ( 0.014388 -0.042855  0.007932)
  8:    129.05   0.000042    0.21  0.000101  (-0.004395  0.002205  0.008763)
  9:    165.32   0.000768    3.88  0.001449  ( 0.034683  0.012213 -0.009864)
 10:    332.00   0.023406  118.29  0.022001  ( 0.123647  0.081928  0.000163)
 11:    389.65   0.010013   50.60  0.008019  (-0.059728  0.062783 -0.022579)
 12:    399.80   0.000007    0.04  0.000006  ( 0.001739 -0.001579  0.000111)
 13:    609.96   0.001779    8.99  0.000910  (-0.015262  0.000463  0.026023)
 14:    729.07   0.009275   46.87  0.003970  ( 0.039227  0.002685 -0.049234)
 15:    782.69   0.000037    0.19  0.000015  ( 0.001871 -0.003318  0.000459)
 16:    833.01   0.000339    1.71  0.000127  ( 0.008534  0.001342 -0.007239)
 17:    898.80   0.000447    2.26  0.000155  (-0.004258  0.011213 -0.003365)
 18:    919.23   0.000110    0.56  0.000037  ( 0.005612  0.001153 -0.002137)
 19:    925.52   0.001638    8.28  0.000552  ( 0.008906 -0.021110  0.005240)
 20:    983.38   0.000269    1.36  0.000085  ( 0.008613  0.003143  0.001096)
 21:    983.93   0.000021    0.11  0.000007  (-0.001197 -0.002305  0.000068)
 22:   1051.82   0.000334    1.69  0.000099  ( 0.003621 -0.008969  0.002337)
 23:   1080.57   0.002037   10.29  0.000588  ( 0.015154  0.001078 -0.018907)
 24:   1131.83   0.000001    0.00  0.000000  ( 0.000032  0.000340  0.000155)
 25:   1163.07   0.000158    0.80  0.000042  ( 0.002042 -0.005978  0.001574)
 26:   1234.87   0.000001    0.01  0.000000  ( 0.000149 -0.000499  0.000230)
 27:   1246.39   0.000437    2.21  0.000109  (-0.008769 -0.002368  0.005184)
 28:   1318.90   0.000320    1.62  0.000076  ( 0.003164 -0.007840  0.002073)
 29:   1333.84   0.000061    0.31  0.000014  (-0.001788  0.003184 -0.000989)
 30:   1340.37   0.000304    1.54  0.000071  (-0.004345 -0.003459 -0.006315)
 31:   1392.11   0.000487    2.46  0.000109  ( 0.003768 -0.009444  0.002386)
 32:   1494.32   0.000272    1.38  0.000057  ( 0.004986  0.001927 -0.005320)
 33:   1502.04   0.000787    3.98  0.000163  (-0.005509  0.011222 -0.002685)
 34:   1519.87   0.000465    2.35  0.000095  ( 0.007349  0.004402  0.004697)
 35:   1662.22   0.000585    2.96  0.000110  (-0.009797 -0.003693 -0.000495)
 36:   3030.33   0.004671   23.60  0.000481  (-0.010953  0.015932  0.010352)
 37:   3040.19   0.005066   25.60  0.000520  (-0.005297  0.017520 -0.013602)
 38:   3069.99   0.002822   14.26  0.000287  (-0.015498 -0.006218 -0.002838)
 39:   3092.45   0.004825   24.38  0.000487  ( 0.003792 -0.020900  0.005976)
 40:   3096.28   0.006315   31.91  0.000636  (-0.024088 -0.004728  0.005819)
 41:   3129.25   0.006111   30.88  0.000609  (-0.003172  0.004855  0.023996)
 42:   3192.13   0.000731    3.70  0.000072  ( 0.002817 -0.007796  0.001669)
 43:   3216.77   0.002982   15.07  0.000289  (-0.011906 -0.007282 -0.009719)
 44:   3659.04   0.033803  170.83  0.002883  (-0.032326 -0.000792  0.042864)

* The epsilon (eps) is given for a Dirac delta lineshape.
** The dipole moment derivative (T) already includes vibrational overlap.

The first frequency considered to be a vibration is 6
The total number of vibrations considered is 39


--------------------------
THERMOCHEMISTRY AT 298.15K
--------------------------

Temperature         ...   298.15 K
Pressure            ...     1.00 atm
Total Mass          ...    85.13 AMU
Quasi RRHO          ...     True
Cut-Off Frequency   ...     1.00 cm^-1

Throughout the following assumptions are being made:
  (1) The electronic state is orbitally nondegenerate
      but the spin degeneracy is treated
  (2) There are no thermally accessible electronically excited states
  (3) Hindered rotations indicated by low frequency modes are not
      treated as such but are treated as vibrations and this may
      cause some error
  (4) All equations used are the standard statistical mechanics
      equations for an ideal gas
  (5) All vibrations are strictly harmonic

freq.      45.78  E(vib)   ...       0.53 
freq.      65.73  E(vib)   ...       0.50 
freq.     129.05  E(vib)   ...       0.43 
freq.     165.32  E(vib)   ...       0.39 
freq.     332.00  E(vib)   ...       0.24 
freq.     389.65  E(vib)   ...       0.20 
freq.     399.80  E(vib)   ...       0.19 
freq.     609.96  E(vib)   ...       0.10 
freq.     729.07  E(vib)   ...       0.06 
freq.     782.69  E(vib)   ...       0.05 
freq.     833.01  E(vib)   ...       0.04 
freq.     898.80  E(vib)   ...       0.03 
freq.     919.23  E(vib)   ...       0.03 
freq.     925.52  E(vib)   ...       0.03 
freq.     983.38  E(vib)   ...       0.02 
freq.     983.93  E(vib)   ...       0.02 
freq.    1051.82  E(vib)   ...       0.02 
freq.    1080.57  E(vib)   ...       0.02 
freq.    1131.83  E(vib)   ...       0.01 
freq.    1163.07  E(vib)   ...       0.01 
freq.    1234.87  E(vib)   ...       0.01 
freq.    1246.39  E(vib)   ...       0.01 
freq.    1318.90  E(vib)   ...       0.01 
freq.    1333.84  E(vib)   ...       0.01 
freq.    1340.37  E(vib)   ...       0.01 
freq.    1392.11  E(vib)   ...       0.00 
freq.    1494.32  E(vib)   ...       0.00 
freq.    1502.04  E(vib)   ...       0.00 
freq.    1519.87  E(vib)   ...       0.00 
freq.    1662.22  E(vib)   ...       0.00 
freq.    3030.33  E(vib)   ...       0.00 
freq.    3040.19  E(vib)   ...       0.00 
freq.    3069.99  E(vib)   ...       0.00 
freq.    3092.45  E(vib)   ...       0.00 
freq.    3096.28  E(vib)   ...       0.00 
freq.    3129.25  E(vib)   ...       0.00 
freq.    3192.13  E(vib)   ...       0.00 
freq.    3216.77  E(vib)   ...       0.00 
freq.    3659.04  E(vib)   ...       0.00 

------------
INNER ENERGY
------------

The inner energy is: U= E(el) + E(ZPE) + E(vib) + E(rot) + E(trans)
    E(el)   - is the total energy from the electronic structure calculation
              = E(kin-el) + E(nuc-el) + E(el-el) + E(nuc-nuc)
    E(ZPE)  - the the zero temperature vibrational energy from the frequency calculation
    E(vib)  - the the finite temperature correction to E(ZPE) due to population
              of excited vibrational states
    E(rot)  - is the rotational thermal energy
    E(trans)- is the translational thermal energy

Summary of contributions to the inner energy U:
Electronic energy                ...   -270.66523852 Eh
Zero point energy                ...      0.12801371 Eh      80.33 kcal/mol
Thermal vibrational correction   ...      0.00477681 Eh       3.00 kcal/mol
Thermal rotational correction    ...      0.00141627 Eh       0.89 kcal/mol
Thermal translational correction ...      0.00141627 Eh       0.89 kcal/mol
-----------------------------------------------------------------------
Total thermal energy                   -270.52961545 Eh


Summary of corrections to the electronic energy:
(perhaps to be used in another calculation)
Total thermal correction                  0.00760935 Eh       4.77 kcal/mol
Non-thermal (ZPE) correction              0.12801371 Eh      80.33 kcal/mol
-----------------------------------------------------------------------
Total correction                          0.13562307 Eh      85.10 kcal/mol


--------
ENTHALPY
--------

The enthalpy is H = U + kB*T
                kB is Boltzmann's constant
Total thermal energy              ...   -270.52961545 Eh 
Thermal Enthalpy correction       ...      0.00094421 Eh       0.59 kcal/mol
-----------------------------------------------------------------------
Total Enthalpy                    ...   -270.52867125 Eh


Note: Only C1 symmetry has been detected, increase convergence thresholds 
      if your molecule has a higher symmetry. Symmetry factor of 1.0 is   
      used for the rotational entropy correction. 
 

Note: Rotational entropy computed according to Herzberg 
Infrared and Raman Spectra, Chapter V,1, Van Nostrand Reinhold, 1945 
Point Group:  C1, Symmetry Number:   1  
Rotational constants in cm-1:     0.139649     0.078015     0.075263 

Vibrational entropy computed according to the QRRHO of S. Grimme
Chem.Eur.J. 2012 18 9955 using a reference frequency of 100.0 cm-1


-------
ENTROPY
-------

The entropy contributions are T*S = T*(S(el)+S(vib)+S(rot)+S(trans))
     S(el)   - electronic entropy
     S(vib)  - vibrational entropy
     S(rot)  - rotational entropy
     S(trans)- translational entropy
The entropies will be listed as multiplied by the temperature to get
units of energy

Electronic entropy                ...      0.00065446 Eh      0.41 kcal/mol
Vibrational entropy               ...      0.00847205 Eh      5.32 kcal/mol
Rotational entropy                ...      0.01286560 Eh      8.07 kcal/mol
Translational entropy             ...      0.01864317 Eh     11.70 kcal/mol
-----------------------------------------------------------------------
Final entropy term                ...      0.04063528 Eh     25.50 kcal/mol

In case the symmetry of your molecule has not been determined correctly
or in case you have a reason to use a different symmetry number we print 
out the resulting rotational entropy values for sn=1,12:

 non-linear molecules -----------------------------------
|  sn= 1 | S(rot)=       0.01286560 Eh      8.07 kcal/mol|
|  sn= 2 | S(rot)=       0.01221115 Eh      7.66 kcal/mol|
|  sn= 3 | S(rot)=       0.01182831 Eh      7.42 kcal/mol|
|  sn= 4 | S(rot)=       0.01155669 Eh      7.25 kcal/mol|
|  sn= 5 | S(rot)=       0.01134600 Eh      7.12 kcal/mol|
|  sn= 6 | S(rot)=       0.01117386 Eh      7.01 kcal/mol|
|  sn= 7 | S(rot)=       0.01102831 Eh      6.92 kcal/mol|
|  sn= 8 | S(rot)=       0.01090223 Eh      6.84 kcal/mol|
|  sn= 9 | S(rot)=       0.01079102 Eh      6.77 kcal/mol|
|  sn=10 | S(rot)=       0.01069154 Eh      6.71 kcal/mol|
|  sn=11 | S(rot)=       0.01060155 Eh      6.65 kcal/mol|
|  sn=12 | S(rot)=       0.01051940 Eh      6.60 kcal/mol|
 linear molecules ---------------------------------------
|  Dinfh | S(rot)=       0.00776819 Eh      4.87 kcal/mol|
|  Cinfv | S(rot)=       0.00842264 Eh      5.29 kcal/mol|
 --------------------------------------------------------


-------------------
GIBBS FREE ENERGY
-------------------

The Gibbs free energy is G = H - T*S

Total enthalpy                    ...   -270.52867125 Eh 
Total entropy correction          ...     -0.04063528 Eh    -25.50 kcal/mol
-----------------------------------------------------------------------
Final Gibbs free energy         ...   -270.56930653 Eh

For completeness - the Gibbs free energy minus the electronic energy
G-E(el)                           ...      0.09593200 Eh     60.20 kcal/mol



--------------------------------
SUGGESTED CITATIONS FOR THIS RUN
--------------------------------

Below you find a list of papers that are relevant to this ORCA run
We neither can nor want to force you to cite these papers, but we appreciate if you do
You receive ORCA, which is the product of decades of hard work by many enthusiastic individuals, for free
The only thing we kindly ask in return is that you cite our papers,
We deeply appreciate it, if you show your appreciation for ORCA by not just citing the generic ORCA reference.

Please note that relegating all ORCA citations to the supporting information does *not* help us.
SI sections are not indexed - citations you put there will not count into any citation statistics
But we need these citations in order to attract the funding resources that allow us to do what we are doing

Therefore, if you are a happy ORCA user, please consider citing a few of the papers listed below in the main body of your paper

In addition to the list printed below, the program has created the file path_back.bibtex that contains the list in bibtex format
You can import this file easily into all common literature databanks and citation aid programs

It goes without saying that in many instances, there are alternative algorithms to achieve similar
results as the ones you have gotten from ORCA. It is, of course, also the case that in some instances
ORCA just re-implements algorithms worked out by others. We are fully aware of that and we are also
fully appreciative of our colleagues work. Hence this citation list should not be read as indicating
that the listed papers, which are focused on our own work, are the only ones worth citing. It simply
meant to make it easier for users to cite ORCA specific papers. It is not a substitute for doing your
own literature research and citing the relevant literature in a scientifically appropriate manner.

List of essential papers. We consider these as the minimum necessary citations

  1. Neese, F.
     Software update: the ORCA program system, version 6.0
     WIRES Comput. Molec. Sci. 2025 15(1), e70019
     doi.org/10.1002/wcms.70019

List of papers to cite with high priority. The work reported in these papers was absolutely
necessary for this run to complete.
Our perspective: the developers of density functionals and basis sets usually get cited in chemistry papers
Good! But without the algorithms to do something with them, the functionals or basis sets would not do anything.
Hence, in our opinion, the algorithm design and method developments papers are equally worthy of getting cited

  1. Neese, F.
     An improvement of the resolution of the identity approximation for the formation of the Coulomb matrix
     J. Comp. Chem. 2003 24(14), 1740-1747
     doi.org/10.1002/jcc.10318
  2. Neese, F.; Schwabe, T.; Grimme, S.
     Analytic derivatives for perturbatively corrected 'double hybrid' density functionals: Theory, implementation, and applications
     J. Chem. Phys. 2007 126(12), Art. No. 124115
     doi.org/10.1063/1.2712433
  3. Neese, F.; Wennmohs, F.; Hansen, A.; Becker, U.
     Efficient, approximate and parallel Hartree-Fock and hybrid DFT calculations. A 'chain-of-spheres' algorithm for the Hartree-Fock exchange
     Chem. Phys. 2009 356(1-3), 98-109
     doi.org/10.1016/j.chemphys.2008.10.036
  4. Kossmann, S.; Neese, F.
     Efficient Structure Optimization with Second-Order Many-Body Perturbation Theory: The RIJCOSX-MP2 Method
     J. Theo. Comp. Chem. 2010 6 , 2325-2338
     doi.org/10.1021/ct100199k
  5. Caldeweyher, E.; Bannwarth, C.; Grimme, S.
     Extension of the D3 dispersion coefficient model
     J. Chem. Phys. 2017 147 , 034112
     doi.org/10.1063/1.4993215
  6. Caldeweyher, E.; Ehlert, S.; Hansen, A.; Neugebauer, H.; Spicher, S.; Bannwarth, C.; Grimme, S.
     A generally applicable atomic-charge dependent London dispersion correction
     J. Chem. Phys. 2019 150 , 154122
     doi.org/10.1063/1.5090222
  7. Helmich-Paris, B.; de Souza, B.; Neese, F.; Izsák, R.
     An improved chain of spheres for exchange algorithm
     J. Chem. Phys. 2021 155(10), 104109
     doi.org/10.1063/5.0058766
  8. Neese, F.
     The SHARK Integral Generation and Digestion System
     J. Comp. Chem. 2022 44(3), 381
     doi.org/10.1002/jcc.26942

List of suggested additional citations. These are papers that are important in the 'surrounding' of 
of this run, or papers that preceded the highly important papers. If you like your results we are grateful for a citation.

  1. Izsak, R.; Neese, F.
     An overlap fitted chain of spheres exchange method
     J. Chem. Phys. 2011 135 , 144105
     doi.org/10.1063/1.3646921
  2. Izsak, R.; Hansen, A.; Neese, F.
     The resolution of identity and chain of spheres approximations for the LPNO-CCSD singles Fock term
     Molec. Phys. 2012 110 , 2413-2417
     doi.org/10.1080/00268976.2012.687466
  3. Neese, F.
     The ORCA program system
     WIRES Comput. Molec. Sci. 2012 2(1), 73-78
     doi.org/10.1002/wcms.81
  4. Izsak, R.; Neese, F.; Klopper, W.
     Robust fitting techniques in the chain of spheres approximation to the Fock exchange: The role of the complementary space
     J. Chem. Phys. 2013 139 , 
     doi.org/10.1063/1.4819264
  5. Neese, F.
     Software update: the ORCA program system, version 4.0
     WIRES Comput. Molec. Sci. 2018 8(1), 1-6
     doi.org/10.1002/wcms.1327
  6. Neese, F.; Wennmohs, F.; Becker, U.; Riplinger, C.
     The ORCA quantum chemistry program package
     J. Chem. Phys. 2020 152(22), 224108
     doi.org/10.1063/5.0004608
  7. Neese, F.
     Software update: The ORCA program system—Version 5.0
     WIRES Comput. Molec. Sci. 2022 12(1), e1606
     doi.org/10.1002/wcms.1606

List of optional additional citations

  1. Neese, F.
     Approximate second-order SCF convergence for spin unrestricted wavefunctions
     Chem. Phys. Lett. 2000 325(1-3), 93-98
     doi.org/10.1016/s0009-2614(00)00662-x

Timings for individual modules:

Sum of individual times          ...    16391.025 sec (= 273.184 min)
Startup calculation              ...      334.174 sec (=   5.570 min)   2.0 %
SCF iterations                   ...     5182.015 sec (=  86.367 min)  31.6 %
Property calculations            ...        3.158 sec (=   0.053 min)   0.0 %
MP2 module                       ...     4552.241 sec (=  75.871 min)  27.8 %
Geometry relaxation              ...        4.926 sec (=   0.082 min)   0.0 %
Numerical frequency calculation  ...     6314.511 sec (= 105.242 min)  38.5 %
                             ****ORCA TERMINATED NORMALLY****
TOTAL RUN TIME: 0 days 4 hours 33 minutes 48 seconds 654 msec
