15
* (null), Energy   -1000.0000000
C     1.217978    0.394381   -0.470597   -0.002480    0.038324    0.048209
C    -0.009658    1.262383   -0.116106   -0.009684    0.100740   -0.136077
C    -1.241125    0.378796   -0.414294   -0.001467    0.033161    0.030683
C    -0.670436   -1.017251   -0.379384    0.006905    0.047274    0.330283
C     0.667302   -1.008757   -0.409954    0.011126    0.051259    0.347385
H     1.590038    0.605696   -1.479852    0.000192   -0.168586    0.005109
H     2.050532    0.552300    0.217679   -0.009962    0.183032    0.023737
H    -0.028108    2.207654   -0.659258   -0.012925   -0.008286   -0.326702
H     0.013440    1.487058    0.951228   -0.020296    0.298801   -0.181556
H    -2.043299    0.526561    0.311346   -0.002174    0.172612    0.001799
H    -1.661688    0.585217   -1.405351    0.000572   -0.167706   -0.012548
H    -1.285071   -1.909994   -0.388225    0.013331    0.040854    0.503707
H     1.292232   -1.893554   -0.446278    0.021133    0.051476    0.548413
O     0.067467   -0.629419    2.508091    0.024848   -0.176977   -0.580657
H     0.040396   -1.541071    2.180954   -0.436687   -0.819469    1.260766
15
* Frequency(6) -117.9268
C     1.217696    0.398736   -0.465118   -0.002480    0.038324    0.048209
C    -0.010758    1.273831   -0.131570   -0.009684    0.100740   -0.136077
C    -1.241292    0.382565   -0.410807   -0.001467    0.033161    0.030683
C    -0.669652   -1.011879   -0.341849    0.006905    0.047274    0.330283
C     0.668567   -1.002931   -0.370475    0.011126    0.051259    0.347385
H     1.590060    0.586537   -1.479271    0.000192   -0.168586    0.005109
H     2.049400    0.573101    0.220377   -0.009962    0.183032    0.023737
H    -0.029577    2.206712   -0.696386   -0.012925   -0.008286   -0.326702
H     0.011134    1.521016    0.930595   -0.020296    0.298801   -0.181556
H    -2.043546    0.546177    0.311550   -0.002174    0.172612    0.001799
H    -1.661623    0.566158   -1.406777    0.000572   -0.167706   -0.012548
H    -1.283556   -1.905351   -0.330981    0.013331    0.040854    0.503707
H     1.294633   -1.887704   -0.383954    0.021133    0.051476    0.548413
O     0.070291   -0.649532    2.442102    0.024848   -0.176977   -0.580657
H    -0.009231   -1.634200    2.324234   -0.436687   -0.819469    1.260766
15
* Frequency(6) -117.9268
C     1.217445    0.402619   -0.460233   -0.002480    0.038324    0.048209
C    -0.011740    1.284039   -0.145359   -0.009684    0.100740   -0.136077
C    -1.241440    0.385925   -0.407698   -0.001467    0.033161    0.030683
C    -0.668952   -1.007088   -0.308381    0.006905    0.047274    0.330283
C     0.669694   -0.997737   -0.335275    0.011126    0.051259    0.347385
H     1.590080    0.569454   -1.478753    0.000192   -0.168586    0.005109
H     2.048390    0.591647    0.222782   -0.009962    0.183032    0.023737
H    -0.030886    2.205873   -0.729491   -0.012925   -0.008286   -0.326702
H     0.009077    1.551293    0.912198   -0.020296    0.298801   -0.181556
H    -2.043766    0.563668    0.311732   -0.002174    0.172612    0.001799
H    -1.661565    0.549165   -1.408049    0.000572   -0.167706   -0.012548
H    -1.282205   -1.901211   -0.279941    0.013331    0.040854    0.503707
H     1.296775   -1.882488   -0.328384    0.021133    0.051476    0.548413
O     0.072809   -0.667465    2.383265    0.024848   -0.176977   -0.580657
H    -0.053481   -1.717236    2.451987   -0.436687   -0.819469    1.260766
15
* Frequency(6) -117.9268
C     1.217251    0.405610   -0.456472   -0.002480    0.038324    0.048209
C    -0.012495    1.291900   -0.155977   -0.009684    0.100740   -0.136077
C    -1.241555    0.388512   -0.405304   -0.001467    0.033161    0.030683
C    -0.668413   -1.003399   -0.282608    0.006905    0.047274    0.330283
C     0.670562   -0.993737   -0.308167    0.011126    0.051259    0.347385
H     1.590094    0.556299   -1.478355    0.000192   -0.168586    0.005109
H     2.047613    0.605930    0.224634   -0.009962    0.183032    0.023737
H    -0.031895    2.205226   -0.754985   -0.012925   -0.008286   -0.326702
H     0.007493    1.574610    0.898031   -0.020296    0.298801   -0.181556
H    -2.043936    0.577137    0.311873   -0.002174    0.172612    0.001799
H    -1.661521    0.536078   -1.409028    0.000572   -0.167706   -0.012548
H    -1.281164   -1.898023   -0.240634    0.013331    0.040854    0.503707
H     1.298424   -1.878471   -0.285589    0.021133    0.051476    0.548413
O     0.074748   -0.681275    2.337954    0.024848   -0.176977   -0.580657
H    -0.087557   -1.781182    2.550369   -0.436687   -0.819469    1.260766
15
* Frequency(6) -117.9268
C     1.217137    0.407384   -0.454240   -0.002480    0.038324    0.048209
C    -0.012943    1.296563   -0.162275   -0.009684    0.100740   -0.136077
C    -1.241623    0.390047   -0.403884   -0.001467    0.033161    0.030683
C    -0.668094   -1.001211   -0.267322    0.006905    0.047274    0.330283
C     0.671077   -0.991365   -0.292089    0.011126    0.051259    0.347385
H     1.590103    0.548496   -1.478118    0.000192   -0.168586    0.005109
H     2.047152    0.614401    0.225733   -0.009962    0.183032    0.023737
H    -0.032493    2.204843   -0.770105   -0.012925   -0.008286   -0.326702
H     0.006554    1.588439    0.889628   -0.020296    0.298801   -0.181556
H    -2.044037    0.585126    0.311956   -0.002174    0.172612    0.001799
H    -1.661494    0.528316   -1.409609    0.000572   -0.167706   -0.012548
H    -1.280547   -1.896132   -0.217322    0.013331    0.040854    0.503707
H     1.299402   -1.876089   -0.260207    0.021133    0.051476    0.548413
O     0.075898   -0.689466    2.311080    0.024848   -0.176977   -0.580657
H    -0.107768   -1.819109    2.608719   -0.436687   -0.819469    1.260766
15
* Frequency(6) -117.9268
C     1.217113    0.407748   -0.453782   -0.002480    0.038324    0.048209
C    -0.013036    1.297521   -0.163570   -0.009684    0.100740   -0.136077
C    -1.241637    0.390363   -0.403592   -0.001467    0.033161    0.030683
C    -0.668028   -1.000762   -0.264179    0.006905    0.047274    0.330283
C     0.671183   -0.990877   -0.288784    0.011126    0.051259    0.347385
H     1.590105    0.546892   -1.478069    0.000192   -0.168586    0.005109
H     2.047057    0.616143    0.225958   -0.009962    0.183032    0.023737
H    -0.032616    2.204764   -0.773213   -0.012925   -0.008286   -0.326702
H     0.006361    1.591282    0.887901   -0.020296    0.298801   -0.181556
H    -2.044057    0.586768    0.311973   -0.002174    0.172612    0.001799
H    -1.661489    0.526721   -1.409728    0.000572   -0.167706   -0.012548
H    -1.280421   -1.895744   -0.212529    0.013331    0.040854    0.503707
H     1.299603   -1.875599   -0.254989    0.021133    0.051476    0.548413
O     0.076134   -0.691150    2.305555    0.024848   -0.176977   -0.580657
H    -0.111923   -1.826906    2.620715   -0.436687   -0.819469    1.260766
15
* Frequency(6) -117.9268
C     1.217183    0.406664   -0.455145   -0.002480    0.038324    0.048209
C    -0.012762    1.294672   -0.159721   -0.009684    0.100740   -0.136077
C    -1.241595    0.389425   -0.404459   -0.001467    0.033161    0.030683
C    -0.668223   -1.002099   -0.273521    0.006905    0.047274    0.330283
C     0.670868   -0.992327   -0.298609    0.011126    0.051259    0.347385
H     1.590100    0.551661   -1.478214    0.000192   -0.168586    0.005109
H     2.047339    0.610966    0.225287   -0.009962    0.183032    0.023737
H    -0.032251    2.204998   -0.763973   -0.012925   -0.008286   -0.326702
H     0.006935    1.582830    0.893036   -0.020296    0.298801   -0.181556
H    -2.043996    0.581886    0.311922   -0.002174    0.172612    0.001799
H    -1.661505    0.531464   -1.409373    0.000572   -0.167706   -0.012548
H    -1.280798   -1.896899   -0.226776    0.013331    0.040854    0.503707
H     1.299005   -1.877055   -0.270501    0.021133    0.051476    0.548413
O     0.075431   -0.686144    2.321979    0.024848   -0.176977   -0.580657
H    -0.099571   -1.803728    2.585056   -0.436687   -0.819469    1.260766
15
* Frequency(6) -117.9268
C     1.217339    0.404249   -0.458183   -0.002480    0.038324    0.048209
C    -0.012151    1.288324   -0.151146   -0.009684    0.100740   -0.136077
C    -1.241503    0.387335   -0.406393   -0.001467    0.033161    0.030683
C    -0.668659   -1.005078   -0.294335    0.006905    0.047274    0.330283
C     0.670167   -0.995557   -0.320501    0.011126    0.051259    0.347385
H     1.590088    0.562284   -1.478536    0.000192   -0.168586    0.005109
H     2.047966    0.599432    0.223791   -0.009962    0.183032    0.023737
H    -0.031436    2.205520   -0.743385   -0.012925   -0.008286   -0.326702
H     0.008214    1.564001    0.904477   -0.020296    0.298801   -0.181556
H    -2.043859    0.571009    0.311809   -0.002174    0.172612    0.001799
H    -1.661541    0.542032   -1.408582    0.000572   -0.167706   -0.012548
H    -1.281638   -1.899474   -0.258518    0.013331    0.040854    0.503707
H     1.297673   -1.880299   -0.305060    0.021133    0.051476    0.548413
O     0.073866   -0.674991    2.358570    0.024848   -0.176977   -0.580657
H    -0.072053   -1.752087    2.505606   -0.436687   -0.819469    1.260766
15
* Frequency(6) -117.9268
C     1.217565    0.400765   -0.462566   -0.002480    0.038324    0.048209
C    -0.011271    1.279164   -0.138773   -0.009684    0.100740   -0.136077
C    -1.241370    0.384320   -0.409183   -0.001467    0.033161    0.030683
C    -0.669286   -1.009376   -0.324365    0.006905    0.047274    0.330283
C     0.669156   -1.000218   -0.352086    0.011126    0.051259    0.347385
H     1.590070    0.577613   -1.479001    0.000192   -0.168586    0.005109
H     2.048872    0.582790    0.221633   -0.009962    0.183032    0.023737
H    -0.030261    2.206274   -0.713681   -0.012925   -0.008286   -0.326702
H     0.010059    1.536833    0.920984   -0.020296    0.298801   -0.181556
H    -2.043661    0.555315    0.311645   -0.002174    0.172612    0.001799
H    -1.661593    0.557281   -1.407441    0.000572   -0.167706   -0.012548
H    -1.282850   -1.903188   -0.304316    0.013331    0.040854    0.503707
H     1.295752   -1.884979   -0.354923    0.021133    0.051476    0.548413
O     0.071606   -0.658900    2.411364    0.024848   -0.176977   -0.580657
H    -0.032348   -1.677580    2.390974   -0.436687   -0.819469    1.260766
15
* Frequency(6) -117.9268
C     1.217835    0.396589   -0.467820   -0.002480    0.038324    0.048209
C    -0.010216    1.268186   -0.123945   -0.009684    0.100740   -0.136077
C    -1.241210    0.380706   -0.412527   -0.001467    0.033161    0.030683
C    -0.670039   -1.014528   -0.360357    0.006905    0.047274    0.330283
C     0.667943   -1.005804   -0.389941    0.011126    0.051259    0.347385
H     1.590049    0.595984   -1.479557    0.000192   -0.168586    0.005109
H     2.049958    0.562844    0.219046   -0.009962    0.183032    0.023737
H    -0.028852    2.207177   -0.678079   -0.012925   -0.008286   -0.326702
H     0.012271    1.504272    0.940769   -0.020296    0.298801   -0.181556
H    -2.043424    0.536504    0.311449   -0.002174    0.172612    0.001799
H    -1.661655    0.575556   -1.406074    0.000572   -0.167706   -0.012548
H    -1.284303   -1.907640   -0.359207    0.013331    0.040854    0.503707
H     1.293449   -1.890589   -0.414685    0.021133    0.051476    0.548413
O     0.068899   -0.639615    2.474641    0.024848   -0.176977   -0.580657
H     0.015239   -1.588279    2.253584   -0.436687   -0.819469    1.260766
15
* Frequency(6) -117.9268
C     1.218121    0.392173   -0.473374   -0.002480    0.038324    0.048209
C    -0.009100    1.256579   -0.108266   -0.009684    0.100740   -0.136077
C    -1.241041    0.376886   -0.416062   -0.001467    0.033161    0.030683
C    -0.670834   -1.019975   -0.398411    0.006905    0.047274    0.330283
C     0.666662   -1.011710   -0.429966    0.011126    0.051259    0.347385
H     1.590027    0.615408   -1.480146    0.000192   -0.168586    0.005109
H     2.051106    0.541756    0.216312   -0.009962    0.183032    0.023737
H    -0.027363    2.208132   -0.640437   -0.012925   -0.008286   -0.326702
H     0.014609    1.469845    0.961687   -0.020296    0.298801   -0.181556
H    -2.043174    0.516617    0.311242   -0.002174    0.172612    0.001799
H    -1.661721    0.594878   -1.404628    0.000572   -0.167706   -0.012548
H    -1.285839   -1.912347   -0.417242    0.013331    0.040854    0.503707
H     1.291014   -1.896520   -0.477871    0.021133    0.051476    0.548413
O     0.066036   -0.619224    2.541542    0.024848   -0.176977   -0.580657
H     0.065553   -1.493863    2.108324   -0.436687   -0.819469    1.260766
15
* Frequency(6) -117.9268
C     1.218391    0.387997   -0.478628   -0.002480    0.038324    0.048209
C    -0.008045    1.245601   -0.093438   -0.009684    0.100740   -0.136077
C    -1.240881    0.373272   -0.419405   -0.001467    0.033161    0.030683
C    -0.671587   -1.025126   -0.434403    0.006905    0.047274    0.330283
C     0.665449   -1.017295   -0.467822    0.011126    0.051259    0.347385
H     1.590006    0.633779   -1.480703    0.000192   -0.168586    0.005109
H     2.052191    0.521810    0.213725   -0.009962    0.183032    0.023737
H    -0.025955    2.209035   -0.604836   -0.012925   -0.008286   -0.326702
H     0.016821    1.437284    0.981472   -0.020296    0.298801   -0.181556
H    -2.042937    0.497807    0.311046   -0.002174    0.172612    0.001799
H    -1.661783    0.613154   -1.403261    0.000572   -0.167706   -0.012548
H    -1.287291   -1.916799   -0.472133    0.013331    0.040854    0.503707
H     1.288711   -1.902129   -0.537634    0.021133    0.051476    0.548413
O     0.063328   -0.599938    2.604818    0.024848   -0.176977   -0.580657
H     0.113140   -1.404563    1.970933   -0.436687   -0.819469    1.260766
15
* Frequency(6) -117.9268
C     1.218617    0.384512   -0.483011   -0.002480    0.038324    0.048209
C    -0.007164    1.236442   -0.081065   -0.009684    0.100740   -0.136077
C    -1.240748    0.370257   -0.422195   -0.001467    0.033161    0.030683
C    -0.672214   -1.029424   -0.464433    0.006905    0.047274    0.330283
C     0.664438   -1.021956   -0.499406    0.011126    0.051259    0.347385
H     1.589989    0.649108   -1.481167    0.000192   -0.168586    0.005109
H     2.053097    0.505169    0.211567   -0.009962    0.183032    0.023737
H    -0.024780    2.209788   -0.575131   -0.012925   -0.008286   -0.326702
H     0.018666    1.410116    0.997979   -0.020296    0.298801   -0.181556
H    -2.042739    0.482113    0.310882   -0.002174    0.172612    0.001799
H    -1.661835    0.628402   -1.402120    0.000572   -0.167706   -0.012548
H    -1.288503   -1.920514   -0.517931    0.013331    0.040854    0.503707
H     1.286790   -1.906809   -0.587497    0.021133    0.051476    0.548413
O     0.061069   -0.583847    2.657612    0.024848   -0.176977   -0.580657
H     0.152844   -1.330056    1.856302   -0.436687   -0.819469    1.260766
15
* Frequency(6) -117.9268
C     1.218773    0.382097   -0.486049   -0.002480    0.038324    0.048209
C    -0.006554    1.230094   -0.072490   -0.009684    0.100740   -0.136077
C    -1.240655    0.368167   -0.424129   -0.001467    0.033161    0.030683
C    -0.672649   -1.032404   -0.485246    0.006905    0.047274    0.330283
C     0.663736   -1.025186   -0.521298    0.011126    0.051259    0.347385
H     1.589977    0.659731   -1.481489    0.000192   -0.168586    0.005109
H     2.053725    0.493635    0.210071   -0.009962    0.183032    0.023737
H    -0.023965    2.210310   -0.554543   -0.012925   -0.008286   -0.326702
H     0.019945    1.391286    1.009421   -0.020296    0.298801   -0.181556
H    -2.042602    0.471235    0.310769   -0.002174    0.172612    0.001799
H    -1.661871    0.638970   -1.401329    0.000572   -0.167706   -0.012548
H    -1.289344   -1.923088   -0.549673    0.013331    0.040854    0.503707
H     1.285458   -1.910053   -0.622056    0.021133    0.051476    0.548413
O     0.059503   -0.572694    2.694204    0.024848   -0.176977   -0.580657
H     0.180363   -1.278415    1.776852   -0.436687   -0.819469    1.260766
15
* Frequency(6) -117.9268
C     1.218843    0.381013   -0.487412   -0.002480    0.038324    0.048209
C    -0.006280    1.227244   -0.068641   -0.009684    0.100740   -0.136077
C    -1.240614    0.367229   -0.424997   -0.001467    0.033161    0.030683
C    -0.672845   -1.033741   -0.494588    0.006905    0.047274    0.330283
C     0.663422   -1.026636   -0.531123    0.011126    0.051259    0.347385
H     1.589971    0.664500   -1.481634    0.000192   -0.168586    0.005109
H     2.054007    0.488458    0.209399   -0.009962    0.183032    0.023737
H    -0.023599    2.210545   -0.545303   -0.012925   -0.008286   -0.326702
H     0.020519    1.382835    1.014556   -0.020296    0.298801   -0.181556
H    -2.042541    0.466353    0.310718   -0.002174    0.172612    0.001799
H    -1.661888    0.643714   -1.400974    0.000572   -0.167706   -0.012548
H    -1.289721   -1.924244   -0.563920    0.013331    0.040854    0.503707
H     1.284860   -1.911509   -0.637567    0.021133    0.051476    0.548413
O     0.058800   -0.567689    2.710627    0.024848   -0.176977   -0.580657
H     0.192714   -1.255237    1.741193   -0.436687   -0.819469    1.260766
15
* Frequency(6) -117.9268
C     1.218820    0.381378   -0.486954   -0.002480    0.038324    0.048209
C    -0.006372    1.228203   -0.069936   -0.009684    0.100740   -0.136077
C    -1.240628    0.367545   -0.424705   -0.001467    0.033161    0.030683
C    -0.672779   -1.033291   -0.491445    0.006905    0.047274    0.330283
C     0.663528   -1.026148   -0.527818    0.011126    0.051259    0.347385
H     1.589973    0.662896   -1.481585    0.000192   -0.168586    0.005109
H     2.053912    0.490199    0.209625   -0.009962    0.183032    0.023737
H    -0.023722    2.210466   -0.548411   -0.012925   -0.008286   -0.326702
H     0.020326    1.385678    1.012828   -0.020296    0.298801   -0.181556
H    -2.042561    0.467995    0.310735   -0.002174    0.172612    0.001799
H    -1.661882    0.642118   -1.401094    0.000572   -0.167706   -0.012548
H    -1.289594   -1.923855   -0.559127    0.013331    0.040854    0.503707
H     1.285061   -1.911019   -0.632350    0.021133    0.051476    0.548413
O     0.059036   -0.569373    2.705102    0.024848   -0.176977   -0.580657
H     0.188559   -1.263034    1.753188   -0.436687   -0.819469    1.260766
15
* Frequency(6) -117.9268
C     1.218705    0.383152   -0.484723   -0.002480    0.038324    0.048209
C    -0.006821    1.232865   -0.076234   -0.009684    0.100740   -0.136077
C    -1.240696    0.369079   -0.423285   -0.001467    0.033161    0.030683
C    -0.672460   -1.031103   -0.476159    0.006905    0.047274    0.330283
C     0.664043   -1.023776   -0.511740    0.011126    0.051259    0.347385
H     1.589982    0.655093   -1.481349    0.000192   -0.168586    0.005109
H     2.053451    0.498670    0.210724   -0.009962    0.183032    0.023737
H    -0.024321    2.210082   -0.563532   -0.012925   -0.008286   -0.326702
H     0.019387    1.399507    1.004426   -0.020296    0.298801   -0.181556
H    -2.042662    0.475984    0.310818   -0.002174    0.172612    0.001799
H    -1.661856    0.634356   -1.401674    0.000572   -0.167706   -0.012548
H    -1.288977   -1.921964   -0.535815    0.013331    0.040854    0.503707
H     1.286039   -1.908637   -0.606968    0.021133    0.051476    0.548413
O     0.060187   -0.577563    2.678228    0.024848   -0.176977   -0.580657
H     0.168349   -1.300960    1.811539   -0.436687   -0.819469    1.260766
15
* Frequency(6) -117.9268
C     1.218511    0.386142   -0.480961   -0.002480    0.038324    0.048209
C    -0.007576    1.240726   -0.086852   -0.009684    0.100740   -0.136077
C    -1.240810    0.371667   -0.420890   -0.001467    0.033161    0.030683
C    -0.671921   -1.027414   -0.450386    0.006905    0.047274    0.330283
C     0.664911   -1.019776   -0.484633    0.011126    0.051259    0.347385
H     1.589997    0.641938   -1.480950    0.000192   -0.168586    0.005109
H     2.052674    0.512953    0.212576   -0.009962    0.183032    0.023737
H    -0.025329    2.209436   -0.589025   -0.012925   -0.008286   -0.326702
H     0.017803    1.422824    0.990258   -0.020296    0.298801   -0.181556
H    -2.042832    0.489454    0.310959   -0.002174    0.172612    0.001799
H    -1.661811    0.621270   -1.402654    0.000572   -0.167706   -0.012548
H    -1.287937   -1.918776   -0.496509    0.013331    0.040854    0.503707
H     1.287688   -1.904620   -0.564173    0.021133    0.051476    0.548413
O     0.062125   -0.591374    2.632918    0.024848   -0.176977   -0.580657
H     0.134272   -1.364907    1.909921   -0.436687   -0.819469    1.260766
15
* Frequency(6) -117.9268
C     1.218260    0.390025   -0.476076   -0.002480    0.038324    0.048209
C    -0.008557    1.250934   -0.100641   -0.009684    0.100740   -0.136077
C    -1.240959    0.375027   -0.417781   -0.001467    0.033161    0.030683
C    -0.671221   -1.022624   -0.416919    0.006905    0.047274    0.330283
C     0.666038   -1.014582   -0.449432    0.011126    0.051259    0.347385
H     1.590016    0.624855   -1.480432    0.000192   -0.168586    0.005109
H     2.051664    0.531499    0.214981   -0.009962    0.183032    0.023737
H    -0.026639    2.208596   -0.622130   -0.012925   -0.008286   -0.326702
H     0.015747    1.453101    0.971861   -0.020296    0.298801   -0.181556
H    -2.043052    0.506944    0.311141   -0.002174    0.172612    0.001799
H    -1.661753    0.604276   -1.403925    0.000572   -0.167706   -0.012548
H    -1.286586   -1.914637   -0.445468    0.013331    0.040854    0.503707
H     1.289830   -1.899404   -0.508603    0.021133    0.051476    0.548413
O     0.064643   -0.609307    2.574080    0.024848   -0.176977   -0.580657
H     0.090023   -1.447943    2.037674   -0.436687   -0.819469    1.260766
15
* Frequency(6) -117.9268
C     1.217978    0.394381   -0.470597   -0.002480    0.038324    0.048209
C    -0.009658    1.262383   -0.116106   -0.009684    0.100740   -0.136077
C    -1.241125    0.378796   -0.414294   -0.001467    0.033161    0.030683
C    -0.670436   -1.017251   -0.379384    0.006905    0.047274    0.330283
C     0.667302   -1.008757   -0.409954    0.011126    0.051259    0.347385
H     1.590038    0.605696   -1.479852    0.000192   -0.168586    0.005109
H     2.050532    0.552300    0.217679   -0.009962    0.183032    0.023737
H    -0.028108    2.207654   -0.659258   -0.012925   -0.008286   -0.326702
H     0.013440    1.487058    0.951228   -0.020296    0.298801   -0.181556
H    -2.043299    0.526561    0.311346   -0.002174    0.172612    0.001799
H    -1.661688    0.585217   -1.405351    0.000572   -0.167706   -0.012548
H    -1.285071   -1.909994   -0.388225    0.013331    0.040854    0.503707
H     1.292232   -1.893554   -0.446278    0.021133    0.051476    0.548413
O     0.067467   -0.629419    2.508091    0.024848   -0.176977   -0.580657
H     0.040396   -1.541071    2.180954   -0.436687   -0.819469    1.260766
