
                                 *****************
                                 * O   R   C   A *
                                 *****************

                                            #,                                       
                                            ###                                      
                                            ####                                     
                                            #####                                    
                                            ######                                   
                                           ########,                                 
                                     ,,################,,,,,                         
                               ,,#################################,,                 
                          ,,##########################################,,             
                       ,#########################################, ''#####,          
                    ,#############################################,,   '####,        
                  ,##################################################,,,,####,       
                ,###########''''           ''''###############################       
              ,#####''   ,,,,##########,,,,          '''####'''          '####       
            ,##' ,,,,###########################,,,                        '##       
           ' ,,###''''                  '''############,,,                           
         ,,##''                                '''############,,,,        ,,,,,,###''
      ,#''                                            '''#######################'''  
     '                                                          ''''####''''         
             ,#######,   #######,   ,#######,      ##                                
            ,#'     '#,  ##    ##  ,#'     '#,    #''#        ,####,    ,#,          
            ##       ##  ##   ,#'  ##            #'  '#       #'       ,# #          
            ##       ##  #######   ##           ,######,      #####,      #          
            '#,     ,#'  ##    ##  '#,     ,#' ,#      #,     #,   #      #          
             '#######'   ##     ##  '#######'  #'      '#     '####' #    #          



                #########################################################
                #                        -***-                          #
                #          Department of theory and spectroscopy        #
                #                                                       #
                #                      Frank Neese                      #
                #                                                       #
                #     Directorship, Architecture, Infrastructure        #
                #                    SHARK, DRIVERS                     #
                #        Core code/Algorithms in most modules           #
                #                                                       #
                #        Max Planck Institute fuer Kohlenforschung      #
                #                Kaiser Wilhelm Platz 1                 #
                #                 D-45470 Muelheim/Ruhr                 #
                #                      Germany                          #
                #                                                       #
                #                  All rights reserved                  #
                #                        -***-                          #
                #########################################################


                         Program Version 6.1.1  -  RELEASE   -
                                (GIT: $487d211c$)
                          ($2025-11-21 10:33:24 +0100$)


 With contributions from (in alphabetic order):
[Max-Planck-Institut fuer Kohlenforschung]                               
  Daniel Aravena         : Magnetic Suceptibility                        
  Michael Atanasov       : Ab Initio Ligand Field Theory (pilot matlab implementation)
  Alexander A. Auer      : GIAO ZORA, VPT2 properties, NMR spectrum      
  Ute Becker             : All parallelization in ORCA, NUMFREQ, NUMCALC 
  Giovanni Bistoni       : ED, misc. LED, open-shell LED, HFLD           
  Dmytro Bykov           : pre 5.0 version of the SCF Hessian            
  Marcos Casanova-Páez   : Triplet and SCS-CIS(D). UHF-(DLPNO)-IP/EA/STEOM-CCSD. UHF-CVS-IP/STEOM-CCSD   
  Vijay G. Chilkuri      : MRCI spin determinant printing, contributions to CSF-ICE 
  Pauline Colinet        : FMM embedding                                 
  Dipayan Datta          : RHF DLPNO-CCSD density                        
  Achintya Kumar Dutta   : EOM-CC, STEOM-CC                              
  Nicolas Foglia         : Exact transition moments, OPA infrastructure, MCD improvements    
  Dmitry Ganyushin       : Spin-Orbit,Spin-Spin,Magnetic field MRCI      
  Miquel Garcia-Rates    : C-PCM and meta-GGA Hessian, CCSD/C-PCM, Gaussian charge scheme 
  Tiago L. C. Gouveia    : GS-ROHF, GS-ROCIS                             
  Yang Guo               : DLPNO-NEVPT2, F12-NEVPT2, CIM, IAO-localization        
  Andreas Hansen         : Spin unrestricted coupled pair/coupled cluster methods 
  Ingolf Harden          : AUTO-CI MPn and infrastructure                
  Benjamin Helmich-Paris : MC-RPA, TRAH-(SCF,CASSCF), AVAS, COSX integrals, SCF dyn. polar., MC-PDFT, srDFT 
  Lee Huntington         : MR-EOM, pCC                                   
  Robert Izsak           : Overlap fitted RIJCOSX, COSX-SCS-MP3, EOM     
  Riya Kayal             : Wick's Theorem for AUTO-CI, AUTO-CI UHF-CCSDT 
  Emily Kempfer          : AUTO-CI RHF CISDT and CCSDT, approximate NEVPT4
  Christian Kollmar      : KDIIS, OOCD, Brueckner-CCSD(T), CCSD density, CASPT2, CASPT2-K, improved NEVPT2 
  Axel Koslowski         : Symmetry handling                             
  Simone Kossmann        : meta-GGA functionals, TD-DFT gradient, OOMP2, (MP2 Hessian; deprecated post 5.0) 
  Lucas Lang             : DCDCAS, Hyperfine gauge corrections, ICE-SOC+SSC
  Marvin Lechner         : AUTO-CI (C++ implementation), FIC-MRCC        
  Spencer Leger          : CASSCF response                               
  Dagmar Lenk            : GEPOL surface, SMD, ORCA-2-JSON               
  Dimitrios Liakos       : Extrapolation schemes; Compound Job, Property file
  Dimitrios Manganas     : Further ROCIS development; embedding schemes. LFT, Crystal Embedding 
  Dimitrios Pantazis     : SARC Basis sets                               
  Anastasios Papadopoulos: AUTO-CI, single reference methods and gradients 
  Taras Petrenko         : pre 6.0 DFT Hessian and TD-DFT gradient,  ECA, NRVS 
  Petra Pikulova         : Analytic Raman intensities                    
  Peter Pinski           : DLPNO-MP2, DLPNO-MP2 Gradient                 
  Shashank Vittal Rao    : ES-AILFT, MagRelax                            
  Christoph Reimann      : Effective Core Potentials                     
  Marius Retegan         : Local ZFS, SOC                                
  Christoph Riplinger    : Optimizer, TS searches, QM/MM, DLPNO-CCSD(T), (RO)-DLPNO pert. Triples 
  Michael Roemelt        : Original ROCIS implementation, recursive CI coupling coefficients
  Masaaki Saitow         : Open-shell DLPNO-CCSD energy and density      
  Barbara Sandhoefer     : DKH picture change effects                    
  Yorick L. A. Schmerwitz: GMF and freeze-and-release deltaSCF, NEB S-IDPP initial path                    
  Kantharuban Sivalingam : CASSCF convergence/infrastructure, NEVPT2, NEVPT3, NEVPT4(SD), FIC-MRCI and CEPA variants
  Bernardo de Souza      : ESD, SOC TD-DFT                               
  Georgi L. Stoychev     : AutoAux, RI-MP2 NMR, DLPNO-MP2 response, X2C  
  Van Anh Tran           : RI-MP2 g-tensors                              
  Willem Van den Heuvel  : Paramagnetic NMR                              
  Zikuan Wang            : NOTCH, Electric field optimization            
  Frank Wennmohs         : Technical directorship and infrastructure     
  Hang Xu                : AUTO-CI-Response properties                   
                                                                         
[FACCTs GmbH]                                                            
  Markus Bursch, Nicolas Foglia, Miquel Garcia-Rates, Ingolf Harden, Hagen Neugebauer, Anastasios Papadopoulos, 
  Christoph Riplinger, Bernardo de Souza, Georgi L. Stoychev                                                    
                                                                 
  APM, various basis sets, CI-OPT, improved COSX, DLPNO-Multilevel,           
  DOCKER, DRACO, updates on ESD, Fragmentator, GOAT, IRC, LR-CPCM, L-BFGS, MBIS, meta-GGA TD-DFT gradient, ML-optimized integration grids, 
  MM, NACMEs, nearIR, NEB, NEB-TS, NL-DFT gradient (VV10), 2- and 3-layer-ONIOM, interface openCOSMO-RS, QMMM,   
  Crystal-QMMM, RESP, rigid body optimization, SF, symmetry and pop. for TD-DFT, various functionals, SOLVATOR                                   
                                                                         
[Other institutions]                                                     
  V. Asgeirsson          : NEB                                           
  Christoph Bannwarth    : sTDA-DFT, sTD-DFT, PBEh-3c, B97-3c, D3        
  Giovanni Bistoni       : ETS/NOCV, ADLD/ADEX, COVALED                  
  Martin Brehm           : Molecular dynamics                            
  Ronald Cardenas        : ETS/NOCV                                      
  Martina Colucci        : COVALED                                       
  Sebastian Ehlert       : rSCAN, r2SCAN, r2SCAN-3c, D4, dhf basis sets  
  Marvin Friede          : D4 for Fr, Ra, Ac-Lr                          
  Lars Goerigk           : TD-DFT with DH, B97 family of functionals     
  Stefan Grimme          : VdW corrections, initial TS optimization, DFT functionals, gCP, sTDA/sTD-DF 
  Waldemar Hujo          : DFT-NL                                        
  H. Jonsson             : NEB                                           
  Holger Kruse           : gCP                                           
  Marcel Mueller         : wB97X-3c, vDZP basis set                      
  Hagen Neugebauer       : wr2SCAN, Native XTB                           
  Gianluca Regni         : ADLD/ADEX                                     
  Tobias Risthaus        : pre 6.0 range-separated hybrid DFT and stability analysis
  Lukas Wittmann         : regularized MP2, r2SCAN double-hybrids, wr2SCAN        
                                                                         
We gratefully acknowledge several colleagues who have allowed us to      
interface, adapt or use parts of their codes:                            
  Ed Valeev, F. Pavosevic, A. Kumar             : LibInt (2-el integral package), F12 methods 
  Garnet Chan, S. Sharma, J. Yang, R. Olivares  : DMRG                   
  Ulf Ekstrom                                   : XCFun DFT Library      
  Mihaly Kallay                                 : mrcc  (arbitrary order and MRCC methods)
  Frank Weinhold                                : gennbo (NPA and NBO analysis)           
  Simon Mueller                                 : openCOSMO-RS                            
  Christopher J. Cramer and Donald G. Truhlar   : smd solvation model                     
  S Lehtola, MJT Oliveira, MAL Marques          : LibXC Library                           
  Liviu Ungur et al                             : ANISO software                          


 Your calculation uses the libint2 library for the computation of 2-el integrals
 For citations please refer to: http://libint.valeyev.net

 Your ORCA version has been built with support for libXC version: 7.0.0
 For citations please refer to: https://libxc.gitlab.io

 This ORCA versions uses:
   CBLAS   interface :  Fast vector & matrix operations
   LAPACKE interface :  Fast linear algebra routines
   SCALAPACK package :  Parallel linear algebra routines
   Shared memory     :  Shared parallel matrices
   BLAS/LAPACK       :  OpenBLAS 0.3.29  USE64BITINT DYNAMIC_ARCH NO_AFFINITY Zen SINGLE_THREADED
        Core in use  :  Zen
   Copyright (c) 2011-2014, The OpenBLAS Project


  ***********************************
  * Starting time: Tue Mar 10 15:27:21 2026
  * Host name:     b2-21
  * Process ID:    4014653
  * Working dir.:  /tmp/lscratch/avcopan/43468264
  ***********************************

NOTE: MaxCore=6000 MB was set to SCF,MP2,MDCI,CIPSI,MRCI,RASCI and CIS
      => If you want to overwrite this, your respective input block should be placed after the MaxCore statement


***************************************
The coordinates will be read from file: RH+OH-c1.xyz
***************************************


Your calculation utilizes the atom-pairwise dispersion correction
based on EEQ partial charges (D4)


Your calculation utilizes a Nudged-Elastic-Band implementation
by V. Ásgeirsson, C. Riplinger & H. Jónsson
Please cite in your paper:
Ásgeirsson, V.; Birgisson, B. O.; Bjornsson, R.; Becker, U.; Neese, F.; Riplinger, R.;
Jónsson H. J. Chem. Theory Comput. 2021, 17, 4929-4945
   

Warning: RI is on but no J-basis has been assigned. Assigning Def2/J (nothing to worry about!)
================================================================================

----- Orbital basis set information -----
Your calculation utilizes the basis: def2-TZVPP
   F. Weigend and R. Ahlrichs, Phys. Chem. Chem. Phys. 7, 3297 (2005).

----- AuxJ basis set information -----
Your calculation utilizes the auxiliary basis: def2/J
   H-Rn: F. Weigend, Phys. Chem. Chem. Phys. 8, 1057 (2006).
   Fr-Lr: K. Eichkorn, F. Weigend, O. Treutler, R. Ahlrichs; Theor. Chem. Acc. 97, 119 (1997).

----- AuxC basis set information -----
Your calculation utilizes the auxiliary basis: def2-TZVPP/C
  H-La, Hf-Rn : A. Hellweg, C. Hattig, S. Hofener and W. Klopper, Theor. Chem. Acc. 117, 587 (2007).
        Ce-Lu : J. Chmela and M. E. Harding, Mol. Phys. (2018).

================================================================================
                                        WARNINGS
                       Please study these warnings very carefully!
================================================================================


WARNING: your system is open-shell and RHF/RKS was chosen
  ===> : WILL SWITCH to UHF/UKS


WARNING: The frozen-core approximation for MP2-gradient calculations is turned on by default.

WARNING: The environment variable RSH_COMMAND is not set!
  ===> : All Displacements for the Numerical Hessian or Gradient calculation
         will be started on localhost

WARNING: Geometry Optimization
  ===> : Switching off AutoStart
         For restart on a previous wavefunction, please use MOREAD

WARNING: The frozen-core approximation is turned on by default for 
         the MP2 part of double-hybrid DFT.

================================================================================
                                       INPUT FILE
================================================================================
NAME = neb.inp
|  1> % MaxCore 6000
|  2> ! PAL8
|  3> ! REVDSD-PBEP86-D4/2021 def2-TZVPP def2-TZVPP/c
|  4> ! VeryTightSCF DefGrid3
|  5> ! Zoom-NEB-TS
|  6> ! NumFreq
|  7> 
|  8> %neb
|  9>     neb_end_xyzfile "RH+OH-c2.xyz" 
| 10> end
| 11> %geom
| 12>    MaxIter        1000
| 13>    Convergence    Tight
| 14> end
| 15> 
| 16> * xyzfile 0 2 RH+OH-c1.xyz
| 17> 
| 18>                          ****END OF INPUT****
================================================================================


--------------------------------------------------------------------------------
                        Nudged Elastic Band Calculation
--------------------------------------------------------------------------------

Number of images (incl. end points)     ....  10
Number of intermediate images           ....  8
Number of optimized images              ....  8
Optimization of end points before NEB   ....  NO
Use existing gbw files for MO input     ....  NO
Number of atoms                         ....  15
Number of (active) degrees of freedom   ....  45
Constrained atoms                       ....  None

-----------------------------------------
  REACTANT (ANGSTROEM)
-----------------------------------------
C      1.899655     1.393839    -0.007247 
C      0.671341     2.263264     0.342939 
C     -0.560223     1.391982     0.009170 
C      0.001599    -0.009031     0.028433 
C      1.339571    -0.007657     0.017907 
H      2.290684     1.620107    -1.005488 
H      2.723307     1.535876     0.695770 
H      0.667012     3.217928    -0.182843 
H      0.680699     2.474468     1.413840 
H     -1.377671     1.533865     0.719676 
H     -0.963277     1.616417    -0.984775 
H     -0.616463    -0.898346    -0.002989 
H      1.958077    -0.896399    -0.024444 
O      0.863479     0.204178     3.299588 
H      0.781012     0.016599     2.345621 

-----------------------------------------
  PRODUCT (ANGSTROEM)
-----------------------------------------
C      1.930911     1.427694    -0.090155 
C      0.718956     2.301892     0.302119 
C     -0.527988     1.429664     0.034557 
C      0.029978     0.031502     0.025530 
C      1.372712     0.030378    -0.042700 
H      2.287446     1.651725    -1.102371 
H      2.776182     1.561142     0.587112 
H      0.692253     3.247902    -0.239414 
H      0.773075     2.522300     1.367876 
H     -1.300157     1.564639     0.793852 
H     -0.984689     1.654401    -0.936417 
H     -0.591124    -0.855858     0.011746 
H      1.987986    -0.857807    -0.119353 
O      0.827105     0.044297     2.408068 
H      0.820803    -0.923165     2.392608 



----------------------
NEB settings
----------------------
Method type                             ....  auto zoom
Threshold for climbing image            ....  2.00e-02 Eh/Bohr 
Threshold for zoom                      ....  4.00e-03 Eh/Bohr 
  Auto selection                        ....  YES 
  Fraction of barrier to be incl.        ....  0.50 
  Selection offset from CI              ....  1 
Free endpoints                          ....  off 
Tangent type                            ....  improved 
Number of intermediate images           ....  8 
Number of images free to move           ....  8 
Spring type for image distribution      ....  distance between adjacent images 
Spring constant                         ....  energy weighted (0.0100 -to- 0.1000) Eh/Bohr^2 
Spring force perp. to the path          ....  none 
Generation of initial path              ....  image dependent pair potential 
Initial path via TS guess               ....  off 

Minimization of RMSD: Rotation          ....  always 
Minimization of RMSD: Translation type  ....  centroid 
Center fixed to origin                  ....  true 
Remove external force                   ....  true 

Reparametrization of the path           ....  off 
Convergence thresholds:
Convergence monitored for               ....  all images
Scaling factor                          ....  10.00

Convergence parameters for regular images:
               Max(|Fp|)                ....  2.00e-02 Eh/Bohr
               RMS(Fp)                  ....  1.00e-02 Eh/Bohr

Convergence parameters for climbing image:
               Max(|F|)                 ....  2.00e-03 Eh/Bohr
               RMS(F)                   ....  1.00e-03 Eh/Bohr
Optimization method:
Method                                  ....  L-BFGS
Max. iterations                         ....  500 
Step size                               ....  1.00 
Maximum allowed step size               ....  0.10 Bohr

LBFGS parameters: 
               Memory                   ....  20 
               Initial step size        ....  0.0010 
               Estimate curvature       ....  YES 
               Reset on maxmove         ....  YES 
               Reparam. on reset        ....  NO 
Generation of  the initial path:
Two fragments detected in initial structure. Preparing initial structure... Done
Two fragments detected in initial structure. Preparing initial structure... Done
Minimize RMSD between reactant and product configurations     .... done
       RMSD before minimization         ....  0.3789 Bohr
       RMSD after minimization          ....  0.3323 Bohr
Performing linear interpolation         ....  done
Generating initial path 1 out of 129 -> Success!
Displacement along initial path:              2.3525 Bohr
Writing initial trajectory to file      ....  neb_initial_path_trj.xyz



----------------------
FIRST NEB OPTIMIZATION
----------------------

Following output files will be written:
Energy profile during opt. written to    ....  neb.interp
Optimization log-file                    ....  neb.NEB.log
Current trajectory will be written to    ....  neb_MEP_trj.xyz
       and to allxyz file                ....  neb_MEP.allxyz
       and individual images to xyz file ....  neb_im{NIm}.xyz
Trajectory history will be written to    ....  neb_MEP_ALL_trj.xyz
Converged CI will be written to          ....  neb_NEB-CI_converged.xyz
Converged TS will be written to          ....  neb_NEB-TS_converged.xyz

Single point energy and gradient calculation of reactant and
product configurations (have to be performed only once)
Properties of fixed NEB end points:
               Reactant:
                         E               ....   -270.665515 Eh
                         RMS(F)          ....      0.000255 Eh/Bohr
                         MAX(|F|)        ....      0.000689 Eh/Bohr
               Product:
                         E               ....   -270.664837 Eh
                         RMS(F)          ....      0.000018 Eh/Bohr
                         MAX(|F|)        ....      0.000054 Eh/Bohr



Starting iterations:

Optim.  Iteration  HEI  E(HEI)-E(0)  max(|Fp|)   RMS(Fp)    dS
Switch-on CI threshold               0.020000 
   LBFGS     0      6    0.001678    0.004761   0.000857  2.3525       

Image  6 will be converted to a climbing image in the next iteration (max(|Fp|) < 0.0200) 

Optim.  Iteration  CI   E(CI)-E(0)   max(|Fp|)   RMS(Fp)    dS     max(|FCI|)   RMS(FCI)
Convergence thresholds                                               0.004000    0.002000 
   LBFGS     1      6    0.001685    0.007426   0.001136  2.3554    0.006826    0.001542       
   LBFGS     2      6    0.001658    0.005115   0.000881  2.3562    0.004717    0.001098       
   LBFGS     3      6    0.001600    0.003613   0.000560  2.3600    0.001916    0.000508       

                                .--------------------.
          ----------------------| CI-NEB convergence |-------------------------
          Item                value                   Tolerance       Converged
          ---------------------------------------------------------------------
          RMS(FCI)            0.0005077516            0.0020000000      YES
          MAX(|FCI|)          0.0019159682            0.0040000000      YES
          ---------------------------------------------------------------------

The climbing image has converged successfully to a saddle point in 3 iterations!
 The regular images might only be partially converged to the MEP. 

---------------------------------------------------------------
                 STARTING SECOND NEB OPTIMIZATION         
---------------------------------------------------------------
            Summary and selection of zoom region 
              (the zoom region is denoted by *)
               Im.  S(bohr)   E(Eh)     dE(Eh)
                0    0.00   -270.6655    0.000
                1    0.25   -270.6655    0.000
                2    0.61   -270.6650    0.001
                3    0.96   -270.6643    0.001*
                4    1.16   -270.6641    0.001*
                5    1.33   -270.6639    0.002*
                6    1.57   -270.6639    0.002*
                7    1.73   -270.6640    0.001*
                8    1.94   -270.6643    0.001*
                9    2.36   -270.6648    0.001
  => Initial length of the zoom path           ....  0.9827 Bohr 
  => Initial zoom traj. is written to          ....  neb_zoom_initial_path
  => Energy profile will be written to         ....  neb_zoom.interp
Optimization log-file appended to       ....  neb.NEB.log
Current trajectory will be written to    ....  neb_MEP_trj.xyz
       and written to allxyz file        ....  neb_MEP_zoom.allxyz
       and individual images to xyz file ....  neb_im{NIm}.xyz
Trajectory history will be appended to   ....  neb_MEP_ALL_trj.xyz
Converged CI will be written to          ....  neb_NEB-CI_converged.xyz
Converged TS will be written to          ....  neb_NEB-TS_converged.xyz



Starting iterations:

Optim.  Iteration  HEI  E(HEI)-E(0)  max(|Fp|)   RMS(Fp)    dS
Switch-on CI threshold               0.020000 
   LBFGS     3      3    0.000455    0.001958   0.000483  0.9819       

Image  3 will be converted to a climbing image in the next iteration (max(|Fp|) < 0.0200) 

Optim.  Iteration  CI   E(CI)-E(0)   max(|Fp|)   RMS(Fp)    dS     max(|FCI|)   RMS(FCI)
Convergence thresholds               0.020000   0.010000            0.002000    0.001000 
   LBFGS     4      3    0.000451    0.002102   0.000396  0.9831    0.002030    0.000506       
   LBFGS     5      3    0.000448    0.001709   0.000299  0.9837    0.001794    0.000423       

                                .--------------------.
          ----------------------| CI-NEB convergence |-------------------------
          Item                value                   Tolerance       Converged
          ---------------------------------------------------------------------
          RMS(Fp)             0.0002985758            0.0100000000      YES
          MAX(|Fp|)           0.0017085390            0.0200000000      YES
          RMS(FCI)            0.0004231051            0.0010000000      YES
          MAX(|FCI|)          0.0017940354            0.0020000000      YES
          ---------------------------------------------------------------------

The elastic band and climbing image have converged successfully to a MEP in 5 iterations!


                    *********************H U R R A Y*********************
                    ***        THE NEB OPTIMIZATION HAS CONVERGED     ***
                    *****************************************************



Note that paths from both the first and secondary NEB run have been concatenated for the following report (with a total of 12) images:

---------------------------------------------------------------
                         PATH SUMMARY              
---------------------------------------------------------------
All forces in Eh/Bohr.

Image Dist.(Ang.)    E(Eh)   dE(kcal/mol)  max(|Fp|)  RMS(Fp)
  0     0.000    -270.66552      0.00       0.00071   0.00025
  1     0.135    -270.66546      0.03       0.00149   0.00042
  2     0.322    -270.66498      0.33       0.00182   0.00058
  3     0.505    -270.66436      0.73       0.00136   0.00038
  4     0.588    -270.66413      0.87       0.00119   0.00029
  5     0.659    -270.66399      0.96       0.00165   0.00037
  6     0.729    -270.66391      1.01       0.00187   0.00042 <= CI
  7     0.802    -270.66391      1.01       0.00171   0.00036
  8     0.872    -270.66399      0.96       0.00116   0.00034
  9     0.943    -270.66413      0.87       0.00148   0.00040
 10     1.026    -270.66435      0.73       0.00275   0.00061
 11     1.248    -270.66484      0.43       0.00005   0.00002

Straight line distance between images along the path:
        D( 0- 1) =   0.1349 Ang.
        D( 1- 2) =   0.1873 Ang.
        D( 2- 3) =   0.1831 Ang.
        D( 3- 4) =   0.0829 Ang.
        D( 4- 5) =   0.0705 Ang.
        D( 5- 6) =   0.0699 Ang.
        D( 6- 7) =   0.0737 Ang.
        D( 7- 8) =   0.0702 Ang.
        D( 8- 9) =   0.0707 Ang.
        D( 9-10) =   0.0827 Ang.
        D(10-11) =   0.2227 Ang.

---------------------------------------------------------------
               INFORMATION ABOUT SADDLE POINT     
---------------------------------------------------------------

Climbing image                            ....  6 
Energy                                    ....  -270.66390853 Eh
Max. abs. force                           ....  1.7940e-03 Eh/Bohr

-----------------------------------------
  SADDLE POINT (ANGSTROEM)
-----------------------------------------
C      1.215756     0.394936    -0.449232 
C     -0.014060     1.275035    -0.130260 
C     -1.246203     0.385706    -0.411964 
C     -0.678281    -1.010349    -0.350221 
C      0.660032    -1.005221    -0.371535 
H      1.603213     0.582403    -1.456769 
H      2.038075     0.564270     0.248061 
H     -0.026256     2.202386    -0.704060 
H      0.000938     1.535723     0.929741 
H     -2.049647     0.550169     0.308203 
H     -1.664159     0.569490    -1.407914 
H     -1.295932    -1.901963    -0.338325 
H      1.284401    -1.892075    -0.378844 
O      0.108272    -0.703467     2.495472 
H      0.063851    -1.547043     2.017648 

-----------------------------------------
  FORCES (Eh/Bohr)
-----------------------------------------
C     -0.000415    -0.000072    -0.000329 
C      0.000014    -0.000113    -0.000005 
C      0.000410    -0.000098    -0.000320 
C      0.000131    -0.000380    -0.000003 
C     -0.000103    -0.000401     0.000026 
H      0.000147     0.000434    -0.000194 
H      0.000129    -0.000231     0.000043 
H     -0.000001    -0.000101     0.000238 
H      0.000017    -0.000239    -0.000260 
H     -0.000121    -0.000214     0.000118 
H     -0.000199     0.000418    -0.000202 
H      0.000298     0.000383    -0.000471 
H     -0.000269     0.000343    -0.000492 
O     -0.000081    -0.000899     0.000051 
H      0.000043     0.001173     0.001794 

-----------------------------------------
  UNIT TANGENT
-----------------------------------------
C      0.006761     0.041154     0.004986 
C      0.005649     0.053509    -0.035266 
C      0.006276     0.033040     0.028085 
C      0.011567     0.043533     0.099889 
C      0.014601     0.047806     0.089120 
H      0.002816    -0.011106    -0.007194 
H      0.006802     0.072216    -0.002269 
H     -0.003500     0.018053    -0.092265 
H      0.014273     0.100263    -0.050109 
H      0.018726     0.058244     0.036596 
H     -0.011254    -0.020984     0.024633 
H      0.017304     0.041141     0.135758 
H      0.014985     0.048878     0.114134 
O     -0.094993    -0.000087    -0.699836 
H     -0.010011    -0.525660     0.353738 
 => Unit tangent is an approximation to the TS mode at the saddle point

Next a TS optimization is performed on the CI from the NEB run.

         *************************************************************
         *                       TS OPTIMIZATION                     *
         *************************************************************


Following output files will be written:
Converged TS will be written to          ....  neb_NEB-TS_converged.xyz
                                         ....  neb.xyz
Current trajectory will be written to    ....  neb_trj.xyz
Initial Hessian will be stored in        ....  neb.appr.hess
 (Almloef) Geometry optimization settings:
Update method            Update   .... Bofill
Choice of coordinates    CoordSys .... (2022) Redundant Internals
Initial Hessian          InHess   .... Read
Max. no of cycles        MaxIter  .... 1000

Convergence Tolerances:
Energy Change            TolE     ....  1.0000e-06 Eh
Max. Gradient            TolMAXG  ....  1.0000e-04 Eh/bohr
RMS Gradient             TolRMSG  ....  3.0000e-05 Eh/bohr
Max. Displacement        TolMAXD  ....  1.0000e-03 bohr
RMS Displacement         TolRMSD  ....  6.0000e-04 bohr
Strict Convergence                .... False

------------------------------------------------------------------------------
                        ORCA OPTIMIZATION COORDINATE SETUP
------------------------------------------------------------------------------

The optimization will be done in redundant internal coordinates (2022)
Making redundant internal coordinates   ...  (2022 redundants) done
Following TS mode number                ...     0
TS-active-atoms for coordinate setup... 13 14 
Evaluating the initial hessian          ... (Reading Exact Hessian)...  
InHessName: neb.appr.hess	The file <neb.appr.hess> is opened as a .hess file
done
done
Evaluating the coordinates              ...  done
Calculating the B-matrix                .... done
Calculating the G-matrix                .... done
The number of degrees of freedom        ....  100

    -----------------------------------------------------------------
                    Redundant Internal Coordinates


    -----------------------------------------------------------------
         Definition                    Initial Value    d2E/dq (diagonal element)
    -----------------------------------------------------------------
      1. B(C   1,C   0)                  1.5456         0.321768   
      2. B(C   2,C   1)                  1.5455         0.313316   
      3. B(C   3,C   2)                  1.5084         0.344073   
      4. B(C   4,C   0)                  1.5084         0.311199   
      5. B(C   4,C   3)                  1.3385         0.519747   
      6. B(H   5,C   0)                  1.0956         0.352740   
      7. B(H   6,C   0)                  1.0914         0.357685   
      8. B(H   7,C   1)                  1.0906         0.360605   
      9. B(H   8,C   1)                  1.0917         0.348800   
     10. B(H   9,C   2)                  1.0914         0.358329   
     11. B(H  10,C   2)                  1.0956         0.352900   
     12. B(H  11,C   3)                  1.0847         0.329129   
     13. B(H  12,C   4)                  1.0846         0.340827   
     14. B(O  13,H   6)                  3.2221         0.030802   
     15. B(O  13,C   3)                  2.9683         0.022466   
     16. B(O  13,C   4)                  2.9352         0.021696   
     17. B(O  13,H   8)                  2.7344         0.041684   
     18. B(H  14,C   4)                  2.5213         0.014893   
     19. B(H  14,O  13)                  0.9705         0.271090   
     20. B(H  14,H   8)                  3.2697         0.049613   
     21. B(H  14,H  11)                  2.7433         0.036133   
     22. B(H  14,H  12)                  2.7114         0.041124   
     23. B(H  14,C   3)                  2.5388         0.017035   
     24. A(C   1,C   0,C   4)          102.9904         0.063734   
     25. A(C   4,C   0,H   6)          112.8738         0.060492   
     26. A(H   5,C   0,H   6)          107.1298         0.040271   
     27. A(C   1,C   0,H   5)          111.9469         0.061520   
     28. A(C   4,C   0,H   5)          109.6625         0.069979   
     29. A(C   1,C   0,H   6)          112.2924         0.069236   
     30. A(C   2,C   1,H   8)          108.9870         0.319775   
     31. A(C   2,C   1,H   7)          112.6125         0.065015   
     32. A(C   0,C   1,C   2)          105.6103         0.100982   
     33. A(C   0,C   1,H   7)          112.6139         0.084318   
     34. A(H   7,C   1,H   8)          107.9369         0.086967   
     35. A(C   0,C   1,H   8)          108.9919         0.161355   
     36. A(H   9,C   2,H  10)          107.0805         0.098142   
     37. A(C   1,C   2,H  10)          111.9199         0.081390   
     38. A(C   3,C   2,H   9)          112.9304         0.060759   
     39. A(C   1,C   2,H   9)          112.3284         0.070928   
     40. A(C   1,C   2,C   3)          102.9999         0.077435   
     41. A(C   3,C   2,H  10)          109.6385         0.224624   
     42. A(C   4,C   3,O  13)           75.5178         0.009064   
     43. A(C   2,C   3,O  13)           92.4830         0.019896   
     44. A(C   4,C   3,H  11)          124.9359         0.045704   
     45. A(C   2,C   3,H  11)          123.1488         0.077609   
     46. A(H  11,C   3,O  13)          103.0236         0.007973   
     47. A(C   2,C   3,C   4)          111.8547         0.046166   
     48. A(H  12,C   4,O  13)          101.4701         0.009969   
     49. A(C   3,C   4,O  13)           78.2807         0.009238   
     50. A(C   0,C   4,O  13)           91.3833         0.011778   
     51. A(C   3,C   4,H  12)          124.9285         0.047461   
     52. A(C   0,C   4,H  12)          123.1309         0.078130   
     53. A(C   0,C   4,C   3)          111.8850         0.045006   
     54. A(C   4,O  13,H  14)           55.8293         0.004857   
     55. A(C   3,O  13,C   4)           26.2015         0.018063   
     56. A(C   3,O  13,H  14)           54.9708         0.003236   
     57. D(C   2,C   1,C   0,C   4)    -20.5105         0.015113   
     58. D(H   7,C   1,C   0,C   4)   -143.7990         0.036306   
     59. D(H   7,C   1,C   0,H   6)     94.4849         0.040947   
     60. D(H   7,C   1,C   0,H   5)    -26.0724         0.040521   
     61. D(C   2,C   1,C   0,H   6)   -142.2267         0.039458   
     62. D(C   2,C   1,C   0,H   5)     97.2161         0.044121   
     63. D(H   9,C   2,C   1,H   7)    -94.3472         0.040248   
     64. D(H   9,C   2,C   1,H   8)     25.3967         0.052846   
     65. D(C   3,C   2,C   1,C   0)     20.5543         0.013893   
     66. D(C   3,C   2,C   1,H   8)    -96.4124         0.056137   
     67. D(C   3,C   2,C   1,H   7)    143.8437         0.044332   
     68. D(H   9,C   2,C   1,C   0)    142.3634         0.036844   
     69. D(C   4,C   3,C   2,C   1)    -13.2689         0.013730   
     70. D(C   4,C   3,C   2,H  10)    106.0174         0.036080   
     71. D(H  11,C   3,C   2,H  10)    -71.2751         0.032781   
     72. D(H  11,C   3,C   2,H   9)     48.0373         0.033857   
     73. D(H  11,C   3,C   2,C   1)    169.4386         0.012052   
     74. D(O  13,C   3,C   2,C   1)     62.1172         0.016668   
     75. D(C   4,C   3,C   2,H   9)   -134.6702         0.038762   
     76. D(H  12,C   4,C   3,C   2)   -177.2719         0.014994   
     77. D(C   0,C   4,C   3,O  13)    -86.7462         0.012076   
     78. D(C   0,C   4,C   3,H  11)    177.3137         0.011628   
     79. D(O  13,C   4,C   0,C   1)    -64.7758         0.020526   
     80. D(H  12,C   4,C   0,H   6)    -48.1264         0.035690   
     81. D(H  12,C   4,C   0,H   5)     71.2282         0.035760   
     82. D(C   0,C   4,C   3,C   2)      0.0789         0.011810   
     83. D(H  12,C   4,C   0,C   1)   -169.4482         0.015267   
     84. D(C   3,C   4,C   0,H   6)    134.4672         0.037452   
     85. D(C   3,C   4,C   0,C   1)     13.1454         0.015442   
     86. D(H  12,C   4,C   3,H  11)     -0.0371         0.009088   
     87. D(C   3,C   4,C   0,H   5)   -106.1782         0.039430   
     88. D(O  13,C   4,C   3,H  11)    -95.9401         0.010159   
     89. D(O  13,C   4,C   3,C   2)     86.8251         0.015032   
     90. D(H  12,C   4,C   3,O  13)     95.9030         0.012701   
     91. D(C   3,O  13,C   4,H  12)   -123.6809         0.048949   
     92. D(H  14,O  13,C   4,H  12)    -44.7356         0.049094   
     93. D(H  14,O  13,C   4,C   3)     78.9453         0.028710   
     94. D(H  14,O  13,C   4,C   0)   -168.9820         0.065222   
     95. D(C   4,O  13,C   3,H  11)    123.1838         0.047210   
     96. D(C   4,O  13,C   3,C   2)   -111.9397         0.041811   
     97. D(H  14,O  13,C   3,H  11)     40.5965         0.046511   
     98. D(C   3,O  13,C   4,C   0)    112.0726         0.043601   
     99. D(H  14,O  13,C   3,C   4)    -82.5873         0.031459   
    100. D(H  14,O  13,C   3,C   2)    165.4730         0.063237   
    -----------------------------------------------------------------

Number of atoms                         .... 15
Number of degrees of freedom            .... 100


         *************************************************************
         *                GEOMETRY OPTIMIZATION CYCLE   1            *
         *************************************************************


           ************************************************************
           *        Program running with 8 parallel MPI-processes     *
           *              working on a common directory               *
           ************************************************************
------------------------------------------------------------------------------
                             ORCA STARTUP CALCULATIONS
                           -- RI-GTO INTEGRALS CHOSEN --
------------------------------------------------------------------------------
------------------------------------------------------------------------------
                   ___                                                        
                  /   \      - P O W E R E D   B Y -                         
                 /     \                                                     
                 |  |  |   _    _      __       _____    __    __             
                 |  |  |  | |  | |    /  \     |  _  \  |  |  /  |          
                  \  \/   | |  | |   /    \    | | | |  |  | /  /          
                 / \  \   | |__| |  /  /\  \   | |_| |  |  |/  /          
                |  |  |   |  __  | /  /__\  \  |    /   |      \           
                |  |  |   | |  | | |   __   |  |    \   |  |\   \          
                \     /   | |  | | |  |  |  |  | |\  \  |  | \   \       
                 \___/    |_|  |_| |__|  |__|  |_| \__\ |__|  \__/        
                                                                              
                      - O R C A' S   B I G   F R I E N D -                    
                                      &                                       
                       - I N T E G R A L  F E E D E R -                       
                                                                              
 v1 FN, 2020, v2 2021, v3 2022-2024                                           
------------------------------------------------------------------------------


----------------------
SHARK INTEGRAL PACKAGE
----------------------

Number of atoms                             ...     15
Number of basis functions                   ...    312
Number of shells                            ...    120
Maximum angular momentum                    ...      3
Integral batch strategy                     ... SHARK/LIBINT Hybrid
RI-J (if used) integral strategy            ... SPLIT-RIJ (Revised 2003 algorithm where possible)
Printlevel                                  ...      1
Contraction scheme used                     ... SEGMENTED contraction
Prescreening option                         ... SCHWARTZ
   Thresh                                   ... 1.000e-12
   Tcut                                     ... 1.000e-14
   Tpresel                                  ... 1.000e-14 
Coulomb Range Separation                    ... NOT USED
Exchange Range Separation                   ... NOT USED
Multipole approximations                    ... NOT USED
Finite Nucleus Model                        ... NOT USED
CABS basis                                  ... NOT available
Auxiliary Coulomb fitting basis             ... AVAILABLE
   # of basis functions in Aux-J            ...    393
   # of shells in Aux-J                     ...    135
   Maximum angular momentum in Aux-J        ...      4
Auxiliary J/K fitting basis                 ... NOT available
Auxiliary Correlation fitting basis         ... AVAILABLE
   # of basis functions in Aux-C            ...    726
   # of shells in Aux-C                     ...    222
   Maximum angular momentum in Aux-C        ...      4
Auxiliary 'external' fitting basis          ... NOT available

Checking pre-screening integrals            ... done (  0.0 sec) Dimension = 120
   => SHARK Basis and OBASIS are compatible. Storing Pre-screening
Shell pair information
Shell pair cut-off parameter TPreSel        ...   1.0e-14
Total number of shell pairs                 ...      7260
Shell pairs after pre-screening             ...      6962
Total number of primitive shell pairs       ...     18687
Primitive shell pairs kept                  ...     14613
          la=0 lb=0:   1549 shell pairs
          la=1 lb=0:   1965 shell pairs
          la=1 lb=1:    649 shell pairs
          la=2 lb=0:   1142 shell pairs
          la=2 lb=1:    740 shell pairs
          la=2 lb=2:    227 shell pairs
          la=3 lb=0:    332 shell pairs
          la=3 lb=1:    213 shell pairs
          la=3 lb=2:    124 shell pairs
          la=3 lb=3:     21 shell pairs

Checking whether 4 symmetric matrices of dimension 312 fit in memory
:Max Core in MB      =   6000.00
 MB in use           =     13.53
 MB left             =   5986.47
 MB needed           =      1.49
 Data fit in memory  = YES
Calculating RI/J V-Matrix + Cholesky decomp.... done (  0.0 sec)
Calculating RI/C V-Matrix + Cholesky decomp.... done (  0.0 sec)
Calculating Nuclear repulsion               ... done (  0.0 sec) ENN=    231.902390225465 Eh

Diagonalization of the overlap matrix:
Smallest eigenvalue                        ... 8.054e-05
Time for diagonalization                   ...    0.010 sec
Threshold for overlap eigenvalues          ... 1.000e-07
Number of eigenvalues below threshold      ... 0
Time for construction of square roots      ...    0.004 sec
Total time needed                          ...    0.015 sec

-------------------
DFT GRID GENERATION
-------------------

General Integration Accuracy     IntAcc      ... 4.959
Radial Grid Type                 RadialGrid  ... OptM3 with GC (2021)
Angular Grid (max. ang.)         AngularGrid ... 6 (Lebedev-590)
Angular grid pruning method      GridPruning ... 4 (adaptive)
Weight generation scheme         WeightScheme... mBecke (2022)
Basis function cutoff            BFCut       ... 1.0000e-12
Integration weight cutoff        WCut        ... 1.0000e-14
Partially contracted basis set               ... off
Rotationally invariant grid construction     ... off
Angular grids for H and He will be reduced by one unit

Total number of grid points                  ...   164208
Total number of batches                      ...     2574
Average number of points per batch           ...       63
Average number of grid points per atom       ...    10947

--------------------
COSX GRID GENERATION
--------------------

GRIDX 1
-------
General Integration Accuracy     IntAcc      ... 4.020
Radial Grid Type                 RadialGrid  ... OptM3 with GC (2021)
Angular Grid (max. ang.)         AngularGrid ... 2 (Lebedev-110)
Angular grid pruning method      GridPruning ... 4 (adaptive)
Weight generation scheme         WeightScheme... mBecke (2022)
Basis function cutoff            BFCut       ... 1.0000e-12
Integration weight cutoff        WCut        ... 1.0000e-14
Partially contracted basis set               ... on
Rotationally invariant grid construction     ... off
Angular grids for H and He will be reduced by one unit

Total number of grid points                  ...    17683
Total number of batches                      ...      147
Average number of points per batch           ...      120
Average number of grid points per atom       ...     1179
UseSFitting                                  ... on

GRIDX 2
-------
General Integration Accuracy     IntAcc      ... 4.338
Radial Grid Type                 RadialGrid  ... OptM3 with GC (2021)
Angular Grid (max. ang.)         AngularGrid ... 3 (Lebedev-194)
Angular grid pruning method      GridPruning ... 4 (adaptive)
Weight generation scheme         WeightScheme... mBecke (2022)
Basis function cutoff            BFCut       ... 1.0000e-12
Integration weight cutoff        WCut        ... 1.0000e-14
Partially contracted basis set               ... on
Rotationally invariant grid construction     ... off
Angular grids for H and He will be reduced by one unit

Total number of grid points                  ...    38648
Total number of batches                      ...      310
Average number of points per batch           ...      124
Average number of grid points per atom       ...     2577
UseSFitting                                  ... on

GRIDX 3
-------
General Integration Accuracy     IntAcc      ... 4.871
Radial Grid Type                 RadialGrid  ... OptM3 with GC (2021)
Angular Grid (max. ang.)         AngularGrid ... 4 (Lebedev-302)
Angular grid pruning method      GridPruning ... 4 (adaptive)
Weight generation scheme         WeightScheme... mBecke (2022)
Basis function cutoff            BFCut       ... 1.0000e-12
Integration weight cutoff        WCut        ... 1.0000e-14
Partially contracted basis set               ... on
Rotationally invariant grid construction     ... off
Angular grids for H and He will be reduced by one unit

Total number of grid points                  ...    75738
Total number of batches                      ...      600
Average number of points per batch           ...      126
Average number of grid points per atom       ...     5049
UseSFitting                                  ... on
Grids setup in   1.7 sec
Initializing property integral containers    ... done (  0.0 sec)

SHARK setup successfully completed in   1.9 seconds

Maximum memory used throughout the entire STARTUP-calculation: 44.1 MB


           ************************************************************
           *        Program running with 8 parallel MPI-processes     *
           *              working on a common directory               *
           ************************************************************
-------------------------------------------------------------------------------
                                 ORCA GUESS
                   Start orbitals & Density for SCF / CASSCF
-------------------------------------------------------------------------------

------------
SCF SETTINGS
------------
Hamiltonian:
 Density Functional     Method          .... DFT(GTOs)
 Exchange Functional    Exchange        .... PBE
   PBE kappa parameter   XKappa         ....  0.804000
   PBE mue parameter    XMuePBE         ....  0.219520
 Correlation Functional Correlation     .... P86
 LDA part of GGA corr.  LDAOpt          .... VWN-5
 Gradients option       PostSCFGGA      .... off
 Hybrid DFT is turned on
   Fraction HF Exchange ScalHFX         ....  0.690000
   Scaling of DF-GGA-X  ScalDFX         ....  0.310000
   Scaling of DF-GGA-C  ScalDFC         ....  0.422400
   Scaling of DF-LDA-C  ScalLDAC        ....  0.422400
   Perturbative correction              ....  1.000000
 RI-approximation to the Coulomb term is turned on
   Number of AuxJ basis functions       .... 393
   RIJ-COSX (HFX calculated with COS-X)).... on


General Settings:
 Integral files         IntName         .... neb
 Hartree-Fock type      HFTyp           .... UHF
 Total Charge           Charge          ....    0
 Multiplicity           Mult            ....    2
 Number of Electrons    NEL             ....   47
 Basis Dimension        Dim             ....  312
 Nuclear Repulsion      ENuc            ....    231.9023902255 Eh

Convergence Acceleration:
 AO-DIIS                CNVDIIS         .... on
   Start iteration      DIISMaxIt       ....    12
   Startup error        DIISStart       ....  0.200000
   # of expansion vecs  DIISMaxEq       ....     5
   Bias factor          DIISBfac        ....   1.050
   Max. coefficient     DIISMaxC        ....  10.000
 MO-DIIS                CNVKDIIS        .... off
 Trust-Rad. Augm. Hess. CNVTRAH         .... auto
   Auto Start mean grad. ratio tolernc. ....  1.125000
   Auto Start start iteration           ....     1
   Auto Start num. interpolation iter.  ....    10
   Max. Number of Micro iterations      ....    24
   Max. Number of Macro iterations      .... Maxiter - #DIIS iter
   Number of Davidson start vectors     ....     2
   Converg. threshold    (grad. norm)   ....   2.000e-06
   Grad. Scal. Fac. for Micro threshold ....   0.100
   Minimum threshold for Micro iter.    ....   1.000e-02
   NR start threshold (gradient norm)   ....   1.000e-04
   Initial trust radius                 ....   0.400
   Minimum AH scaling param. (alpha)    ....   1.000
   Maximum AH scaling param. (alpha)    .... 1000.000
   Quad. conv. algorithm                .... NR
   White noise on init. David. guess    .... on
   Maximum white noise                  ....   0.010
   Pseudo random numbers                .... off
   Inactive MOs                         .... canonical
   Orbital update algorithm             .... Taylor
   Preconditioner                       .... Diag
   Full preconditioner red. dimension   ....   250
 SOSCF                 CNVSOSCF           .... on
   Start iteration     SOSCFMaxIt         ....   150
   Startup grad/error  SOSCFStart         ....  0.003300
   Hessian update      SOSCFHessUp        .... L-BFGS
   Autom. constraints  SOSCFAutoConstrain .... off
 Level Shifting         CNVShift        .... on
   Level shift para.    LevelShift      ....    0.2500
   Turn off err/grad.   ShiftErr        ....    0.0010
 Zerner damping         CNVZerner       .... off
 Static damping         CNVDamp         .... on
   Fraction old density DampFac         ....    0.7000
   Max. Damping (<1)    DampMax         ....    0.9800
   Min. Damping (>=0)   DampMin         ....    0.0000
   Turn off err/grad.   DampErr         ....    0.1000

SCF Procedure:
 Maximum # iterations   MaxIter         ....   125
 SCF integral mode      SCFMode         .... Direct
   Integral package                     .... SHARK and LIBINT hybrid scheme
 Reset frequency        DirectResetFreq ....    20
 Integral Threshold     Thresh          ....  1.000e-12 Eh
 Primitive CutOff       TCut            ....  1.000e-14 Eh

Convergence Tolerance:
 Convergence Check Mode ConvCheckMode   .... Total+1el-Energy
 Convergence forced     ConvForced      .... 0
 Energy Change          TolE            ....  1.000e-09 Eh
 1-El. energy change                    ....  1.000e-06 Eh
 Orbital Gradient       TolG            ....  2.000e-06
 Orbital Rotation angle TolX            ....  2.000e-06
 DIIS Error             TolErr          ....  1.000e-08

---------------------
INITIAL GUESS: MOREAD
---------------------
Guess MOs are being read from file: neb.gbw
Input Geometry matches current geometry (good)
Input basis set matches current basis set (good)
MOs were renormalized
MOs were reorthogonalized (Cholesky)
                      ------------------
                      INITIAL GUESS DONE (   0.0 sec)
                      ------------------
             **** ENERGY FILE WAS UPDATED (neb.en.tmp) ****
Finished Guess after   1.5 sec
Maximum memory used throughout the entire GUESS-calculation: 19.5 MB


           ************************************************************
           *        Program running with 8 parallel MPI-processes     *
           *              working on a common directory               *
           ************************************************************

-------------------------------------------------------------------------------------------
                                      ORCA LEAN-SCF
                              memory conserving SCF solver
-------------------------------------------------------------------------------------------

----------------------------------------D-I-I-S--------------------------------------------
Iteration    Energy (Eh)           Delta-E    RMSDP     MaxDP     DIISErr   Damp  Time(sec)
-------------------------------------------------------------------------------------------
               ***  Starting incremental Fock matrix formation  ***
                              *** Initializing SOSCF ***
---------------------------------------S-O-S-C-F--------------------------------------
Iteration    Energy (Eh)           Delta-E    RMSDP     MaxDP     MaxGrad    Time(sec)
--------------------------------------------------------------------------------------
    1    -270.1104608402687290     0.00e+00  4.56e-08  6.71e-07  7.34e-07     3.0
               *** Restarting incremental Fock matrix formation ***
    2    -270.1104608402904432    -2.17e-11  3.41e-08  9.67e-07  2.04e-06     2.9
    3    -270.1104608400726192     2.18e-10  5.16e-07  1.57e-05  1.99e-06     1.5
                 **** Energy Check signals convergence ****

               *****************************************************
               *                     SUCCESS                       *
               *           SCF CONVERGED AFTER   3 CYCLES          *
               *****************************************************

Recomputing exchange energy using gridx3       ... done (    4.010 sec)
Old exchange energy                            :    -25.788125436 Eh
New exchange energy                            :    -25.788124684 Eh
Exchange energy change after final integration :      0.000000752 Eh
Total energy after final integration           :   -270.110460088 Eh
             **** ENERGY FILE WAS UPDATED (neb.en.tmp) ****

----------------
TOTAL SCF ENERGY
----------------

Total Energy       :       -270.11046008841242 Eh           -7350.07929 eV

Components:
Nuclear Repulsion  :        231.90239022546521 Eh            6310.38485 eV
Electronic Energy  :       -502.01285106570322 Eh          -13660.46416 eV
One Electron Energy:       -825.46429864105687 Eh          -22462.02551 eV
Two Electron Energy:        323.45144757535365 Eh            8801.56135 eV

Virial components:
Potential Energy   :       -539.52242654248801 Eh          -14681.15160 eV
Kinetic Energy     :        269.41196645407558 Eh            7331.07231 eV
Virial Ratio       :          2.00259266002001

DFT components:
N(Alpha)           :       24.000000494895 electrons
N(Beta)            :       23.000000598480 electrons
N(Total)           :       47.000001093375 electrons
E(X)               :      -11.522946139140 Eh       
E(C)               :       -0.708085725713 Eh       
E(XC)              :      -12.231031864852 Eh       

---------------
SCF CONVERGENCE
---------------

  Last Energy change         ...   -2.1782e-10  Tolerance :   1.0000e-09
  Last MAX-Density change    ...    1.5735e-05  Tolerance :   1.0000e-08
  Last RMS-Density change    ...    5.1602e-07  Tolerance :   1.0000e-09
  Last DIIS Error            ...    1.8267e-06  Tolerance :   1.0000e-08
  Last Orbital Gradient      ...    1.9867e-06  Tolerance :   2.0000e-06
  Last Orbital Rotation      ...    7.5679e-05  Tolerance :   2.0000e-06


----------------------
UHF SPIN CONTAMINATION
----------------------

Warning: in a DFT calculation there is little theoretical justification to 
         calculate <S**2> as in Hartree-Fock theory. We will do it anyways
         but you should keep in mind that the values have only limited relevance

Expectation value of <S**2>     :     0.755308
Ideal value S*(S+1) for S=0.5   :     0.750000
Deviation                       :     0.005308

----------------
ORBITAL ENERGIES
----------------
                 SPIN UP ORBITALS
  NO   OCC          E(Eh)            E(eV) 
   0   1.0000     -20.058583      -545.8218 
   1   1.0000     -10.817621      -294.3624 
   2   1.0000     -10.816244      -294.3250 
   3   1.0000     -10.810358      -294.1648 
   4   1.0000     -10.810133      -294.1587 
   5   1.0000     -10.805223      -294.0251 
   6   1.0000      -1.230715       -33.4895 
   7   1.0000      -1.026235       -27.9253 
   8   1.0000      -0.872000       -23.7283 
   9   1.0000      -0.865472       -23.5507 
  10   1.0000      -0.708621       -19.2826 
  11   1.0000      -0.657052       -17.8793 
  12   1.0000      -0.613674       -16.6989 
  13   1.0000      -0.590880       -16.0787 
  14   1.0000      -0.581082       -15.8120 
  15   1.0000      -0.544929       -14.8283 
  16   1.0000      -0.497985       -13.5509 
  17   1.0000      -0.479964       -13.0605 
  18   1.0000      -0.461179       -12.5493 
  19   1.0000      -0.441504       -12.0139 
  20   1.0000      -0.438497       -11.9321 
  21   1.0000      -0.432219       -11.7613 
  22   1.0000      -0.426112       -11.5951 
  23   1.0000      -0.312414        -8.5012 
  24   0.0000       0.093873         2.5544 
  25   0.0000       0.094741         2.5780 
  26   0.0000       0.121559         3.3078 
  27   0.0000       0.139805         3.8043 
  28   0.0000       0.145427         3.9573 
  29   0.0000       0.160751         4.3743 
  30   0.0000       0.167625         4.5613 
  31   0.0000       0.169189         4.6039 
  32   0.0000       0.190327         5.1791 
  33   0.0000       0.211214         5.7474 
  34   0.0000       0.245783         6.6881 

                 SPIN DOWN ORBITALS
  NO   OCC          E(Eh)            E(eV) 
   0   1.0000     -20.024277      -544.8883 
   1   1.0000     -10.817294      -294.3535 
   2   1.0000     -10.815919      -294.3161 
   3   1.0000     -10.810389      -294.1657 
   4   1.0000     -10.810144      -294.1590 
   5   1.0000     -10.805160      -294.0234 
   6   1.0000      -1.108315       -30.1588 
   7   1.0000      -1.025208       -27.8973 
   8   1.0000      -0.871113       -23.7042 
   9   1.0000      -0.865339       -23.5471 
  10   1.0000      -0.708217       -19.2716 
  11   1.0000      -0.656665       -17.8688 
  12   1.0000      -0.613251       -16.6874 
  13   1.0000      -0.574863       -15.6428 
  14   1.0000      -0.554500       -15.0887 
  15   1.0000      -0.497476       -13.5370 
  16   1.0000      -0.479669       -13.0524 
  17   1.0000      -0.441394       -12.0110 
  18   1.0000      -0.438052       -11.9200 
  19   1.0000      -0.431421       -11.7396 
  20   1.0000      -0.426196       -11.5974 
  21   1.0000      -0.423363       -11.5203 
  22   1.0000      -0.313329        -8.5261 
  23   0.0000       0.010502         0.2858 
  24   0.0000       0.095946         2.6108 
  25   0.0000       0.097050         2.6409 
  26   0.0000       0.125757         3.4220 
  27   0.0000       0.139955         3.8084 
  28   0.0000       0.146563         3.9882 
  29   0.0000       0.161297         4.3891 
  30   0.0000       0.167727         4.5641 
  31   0.0000       0.172292         4.6883 
  32   0.0000       0.190460         5.1827 
  33   0.0000       0.215137         5.8542 
*Only the first 10 virtual orbitals were printed.
-------
TIMINGS
-------

Total SCF time: 0 days 0 hours 0 min 14 sec 

Total time                  ....      14.848 sec
Sum of individual times     ....      12.936 sec  ( 87.1%)

SCF preparation             ....       1.525 sec  ( 10.3%)
Fock matrix formation       ....      11.183 sec  ( 75.3%)
  Startup                   ....       0.007 sec  (  0.1% of F)
  Split-RI-J                ....       0.254 sec  (  2.3% of F)
  Chain of spheres X        ....      10.743 sec  ( 96.1% of F)
  XC integration            ....       1.988 sec  ( 17.8% of F)
    XC Preparation          ....       0.000 sec  (  0.0% of XC)
    Basis function eval.    ....       0.351 sec  ( 17.7% of XC)
    Density eval.           ....       0.769 sec  ( 38.7% of XC)
    XC-Functional eval.     ....       0.046 sec  (  2.3% of XC)
    XC-Potential eval.      ....       0.634 sec  ( 31.9% of XC)
Diagonalization             ....       0.000 sec  (  0.0%)
Density matrix formation    ....       0.017 sec  (  0.1%)
Total Energy calculation    ....       0.008 sec  (  0.1%)
Population analysis         ....       0.001 sec  (  0.0%)
Orbital Transformation      ....       0.046 sec  (  0.3%)
Orbital Orthonormalization  ....       0.000 sec  (  0.0%)
DIIS solution               ....       0.050 sec  (  0.3%)
SOSCF solution              ....       0.102 sec  (  0.7%)
Finished LeanSCF after  14.9 sec

Maximum memory used throughout the entire LEANSCF-calculation: 30.2 MB


           ************************************************************
           *        Program running with 8 parallel MPI-processes     *
           *              working on a common directory               *
           ************************************************************

------------------------------------------------------------------------------
                                ORCA  MP2 
------------------------------------------------------------------------------

Freezing NCore=12 chemical core electrons

----------------------
RI-MP2 ENERGY+GRADIENT
----------------------
Dimension of the orbital basis            ...  312
Dimension of the AuxC basis               ...  726
Memory devoted to MP2                     ... 6000 MB   
Data format for matrix containers         ... DOUBLE
Compression type for matrix containers    ... UNCOMPRESSED
Scaling for aa/bb pairs                   ...   5.660e-02
Scaling for ab pairs                      ...   5.935e-01
Overall scaling of the MP2 energy         ...   1.000e+00

-----------------------
SHARK RI TRANSFORMATION
-----------------------

Number of basis functions                ...    312
Number of aux functions                  ...    726
Number of operators                      ...      2
Generation of IJK                        ... YES
Generation of IAK                        ... YES
Generation of ABK                        ... NO
Orbital Range Operator  0:    0-  23 to   24- 311

Orbital Range Operator  1:    0-  22 to   23- 311

Aux basis identifier                     ...   AUXC
Contraction scheme used                  ... SEGMENTED
Do orthogonalization                     ... YES
All operator combinations                ... NO
Transpose (ia|K)                         ... NO
Integral generator used                  ... LIBINT
Starting integral generation + trafo... 
Half trafo (segmented) done. Total time =  0.2 sec. integrals=  0.1 sec trafo=  0.1 sec
Integral generation and half transformation done (  0.2 sec)

Reading or making V^(-1/2)          ... done (  0.0 sec)
Sorting IJK integrals               ... done (  0.0 sec)
Sorting IAK integrals               ... done (  0.1 sec)
Sorting IJK integrals               ... done (  0.1 sec)
Sorting IAK integrals               ... done (  0.1 sec)

SHARK RI integral transformation done. Total time =  0.4 sec.

Opening buffers                              ... done
Frozen core precalculation                   ... done

Starting loop over batches of integrals:

Operator 0  - window                       ... (  6- 23)x( 24-311)
Operator 0  - Memory available             ...  6000 MB
Operator 0  - Memory needed per MO         ...   1.6 MB
Operator 0  - Number of orbitals per batch ... 3
Operator 0  - Number of batches            ... 1

OPERATOR  0   PASS   0:  MOs     6 ...    8 +    9 ...   11 +   12 ...   14 +   15 ...   17
                            +   18 ...   20 +   21 ...   23
  Reading integrals       ... ok
  Internal MO   8
Closing buffer GIPV ( 0.03 GB; CompressionRatio= 1.00)

Operator 1  - window                       ... (  6- 22)x( 23-311)
Operator 1  - Memory available             ...  6000 MB
Operator 1  - Memory needed per MO         ...   1.6 MB
Operator 1  - Number of orbitals per batch ... 3
Operator 1  - Number of batches            ... 1

OPERATOR  1   PASS   0:  MOs     6 ...    8 +    9 ...   11 +   12 ...   14 +   15 ...   17
                            +   18 ...   20 +   21 ...   22
  Reading integrals       ... ok
  Internal MO   8
Closing buffer GIPV ( 0.03 GB; CompressionRatio= 1.00)
Time spent in pair loops =     2.668 sec
Deleting buffers (Ka|jb) ...done

Spin-scaled correlation energy components}
 E2 for alpha/alpha pairs :     -0.008318214 Eh
 E2 for beta/beta   pairs :     -0.007281574 Eh
 E2 for alpha/beta  pairs :     -0.530194676 Eh


-----------------------------------------------
 RI-MP2 CORRELATION ENERGY:     -0.545794464 Eh
-----------------------------------------------


---------------------
MP2 DENSITY FORMATION
---------------------

Completing the external part of the density      ... done
Storing the unrelaxed density                    ... done

Re-sorting 3-index density container for op 0    ... done
Re-sorting 3-index density container for op 1    ... done
Computing external part of the Lagrangian        ... done
Calculating the xc-kernel                        ... done
Calculating G(D)                                 ... done
Completing the Lagrangian                        ... done
Solving the Z-vector equations                   ... Using XC Grid                  ... (neb.grid_cpscf.tmp) 
Recalculating density on grid  ... (neb.grho_cpscf0.tmp) done
Calculating the xc-kernel      ... (neb.fxc_cpscf0.tmp) done

-------------------
SHARK CP-SCF DRIVER
-------------------

Dimension of the orbital basis          ...    312
Dimension of the CPSCF-problem          ...  13559
Number of operators                     ...      2
Max. number of iterations               ...    128
Convergence Tolerance                   ... 3.0e-05
Number of perturbations                 ...      1
Perturbation type                       ... REAL

----------------------------
POPLE LINEAR EQUATION SOLVER
----------------------------

  ITERATION   0:   ||err||_max =   2.8532e-02 (   0.8 sec)
  ITERATION   1:   ||err||_max =   8.7580e-03 (   0.9 sec)
  ITERATION   2:   ||err||_max =   2.8705e-03 (   0.9 sec)
  ITERATION   3:   ||err||_max =   1.2342e-03 (   0.9 sec)
  ITERATION   4:   ||err||_max =   8.7179e-04 (   0.9 sec)
  ITERATION   5:   ||err||_max =   8.3196e-04 (   0.9 sec)
  ITERATION   6:   ||err||_max =   5.1218e-04 (   0.9 sec)
  ITERATION   7:   ||err||_max =   3.6135e-04 (   0.9 sec)
  ITERATION   8:   ||err||_max =   2.5255e-04 (   0.9 sec)
  ITERATION   9:   ||err||_max =   1.3188e-04 (   0.9 sec)
  ITERATION  10:   ||err||_max =   7.0151e-05 (   0.9 sec)
  ITERATION  11:   ||err||_max =   4.0579e-05 (   0.9 sec)
  ITERATION  12:   ||err||_max =   2.6499e-05 (   0.9 sec)
done
Finalizing the relaxed density                   ... done
Transforming P to the AO basis                   ... done
Storing the relaxed density                      ... done

------------------------------------
ENERGY WEIGHTED DENSITY FINALIZATION
------------------------------------

Gathering the parts of the W-matrix              ... done
Forming the Z-density                            ... done
Transforming Z to the AO basis                   ... done
Calculating G(Z)                                 ... done
Finalizing the W-matrix                          ... done
Transforming W to the AO basis and storing       ... done

----------------------------------
MP2 DERIVATIVE INTEGRAL GENERATION
----------------------------------

Input SCF Electron Density              ... neb.scfp
Input Correlated Electron Density       ... neb.pmp2re
Input Energy Weighted Density           ... neb.wmp2.tmp

Nuclear repulsion gradient              ... done (  0.0 sec)
HCore & Overlap gradient  (SHARK)       ... done (  0.1 sec)
Two-electron RIJ gradient terms         ... done (  0.6 sec)

-----------------------------------------------------------
MP2 COSX Grid Generation
-----------------------------------------------------------

General Integration Accuracy     IntAcc      ... 4.871
Radial Grid Type                 RadialGrid  ... OptM3 with GC (2021)
Angular Grid (max. ang.)         AngularGrid ... 4 (Lebedev-302)
Angular grid pruning method      GridPruning ... 4 (adaptive)
Weight generation scheme         WeightScheme... mBecke (2022)
Basis function cutoff            BFCut       ... 1.0000e-12
Integration weight cutoff        WCut        ... 1.0000e-14
Partially contracted basis set               ... on
Rotationally invariant grid construction     ... off
Angular grids for H and He will be reduced by one unit

Total number of grid points                  ...    75738
Total number of batches                      ...      600
Average number of points per batch           ...      126
Average number of grid points per atom       ...     5049
UseSFitting                                  ... on
Two-electron COSX gradient terms        ... 
Integration Timings:
Total Time                  =    10.0 sec
Basis fcn evaluation        =     0.1 sec
Density evaluation          =     0.4 sec
A evaluation                =     8.8 sec
A derivative evaluation     =     0.0 sec
S-fit derivative evaluation =     0.0 sec
anal. over. der. evaluation =     0.0 sec
num. over. der. evaluation  =     0.2 sec
K(P) evaluation             =     0.2 sec
finalize                    =     0.0 sec

done ( 10.4 sec)
DFT XC gradient                         ... done (  4.6 sec)
Empirical dispersion gradient           ... done (  0.0 sec)

-------
TIMINGS
-------

Total time                :   37.322 sec
Integral trafo            :    0.432 sec (  1.2%)
FC preparation            :    0.292 sec (  0.8%)
I/O of integrals          :    0.154 sec (  0.4%)
K(i,j) operators          :    0.666 sec (  1.8%)
T(i,j) pair energies      :    0.064 sec (  0.2%)
V**(-1/2)                 :    0.106 sec (  0.3%)
Gamma(ia|P)               :    0.614 sec (  1.6%)
Gamma-Trafo               :    0.118 sec (  0.3%)
D(virtual)                :    0.129 sec (  0.3%)
D(internal)               :    0.307 sec (  0.8%)
W(virtual)                :    0.135 sec (  0.4%)
W(internal)               :    0.340 sec (  0.9%)
L(virtual)                :    0.241 sec (  0.6%)
L(internal)               :    0.016 sec (  0.0%)
XC kernel                 :    0.028 sec (  0.1%)
G(D)                      :    2.581 sec (  6.9%)
G(Z)                      :    2.597 sec (  7.0%)
Z-vector solution         :   11.563 sec ( 31.0%)
3-index derivative        :    0.552 sec (  1.5%)
2-index derivative        :    0.032 sec (  0.1%)
Fock matrix gradient      :   15.777 sec ( 42.3%)


---------------------------------------
MP2 TOTAL ENERGY:     -270.656254553 Eh
---------------------------------------

The final MP2 gradient
  0:   0.00041442   0.00007179   0.00032990
  1:  -0.00001367   0.00011337   0.00000537
  2:  -0.00041018   0.00009750   0.00032001
  3:  -0.00013052   0.00037966   0.00000281
  4:   0.00010249   0.00040107  -0.00002635
  5:  -0.00014676  -0.00043394   0.00019378
  6:  -0.00012915   0.00023057  -0.00004268
  7:   0.00000110   0.00010059  -0.00023843
  8:  -0.00001665   0.00023957   0.00025947
  9:   0.00012130   0.00021410  -0.00011829
 10:   0.00019856  -0.00041797   0.00020215
 11:  -0.00029764  -0.00038274   0.00047141
 12:   0.00026930  -0.00034237   0.00049241
 13:   0.00008112   0.00090014  -0.00005298
 14:  -0.00004258  -0.00117468  -0.00179256

-----------------------------------
NORM OF THE MP2 GRADIENT:  0.002838
-----------------------------------

Maximum memory used throughout the entire MP2-calculation: 69.4 MB


-------------------------------------------------------------------------------
                          DFT DISPERSION CORRECTION                            
                                                                               
                                DFTD4 V3.4.0                                   
-------------------------------------------------------------------------------
The REV-DSD-PBEP86-2021 functional is recognized
A user input s6-coefficient scaling factor has been recognized
A user input a1-coefficient scaling factor has been recognized
A user input s8-coefficient scaling factor has been recognized
A user input a2-coefficient scaling factor has been recognized
A user input s9-coefficient scaling factor has been recognized
Active option DFTDOPT                   ...         5   

-------------------------   ----------------
Dispersion correction           -0.007655898
-------------------------   ----------------


-------------------------   --------------------
FINAL SINGLE POINT ENERGY      -270.663910450839
-------------------------   --------------------

------------------------------------------------------------------------------
                         ORCA GEOMETRY RELAXATION STEP
------------------------------------------------------------------------------

Reading the OPT-File                    .... done
Getting information on internals        .... done
Copying old internal coords+grads       .... done
Making the new internal coordinates     .... (2022 redundants) done
Validating the new internal coordinates .... (2022 redundants) done
Calculating the B-matrix                .... done
Calculating the G,G- and P matrices     .... done
Transforming gradient to internals      .... done
Projecting the internal gradient        .... done
Number of atoms                         ....  15
Number of internal coordinates          .... 100
Current Energy                          ....  -270.663910451 Eh
Current gradient norm                   ....     0.002838466 Eh/bohr
Maximum allowed component of the step   ....  0.300
Current trust radius                    ....  0.100
Evaluating the initial hessian          ....  (read) 
(Reading Exact Hessian)...  
InHessName: neb.appr.hess	The file <neb.appr.hess> is opened as a .hess file
done
done
Projecting the Hessian                  .... done
Diagonalizing the Hessian               .... done
Dimension of the hessian                .... 100
Lowest eigenvalues of the Hessian:
 -0.001227434  0.006476405  0.009881468  0.016939823  0.021499443
Hessian has   1 negative eigenvalues
Taking P-RFO step
Searching for lambda that maximizes along the lowest mode
TS mode is mode number   0 with eigenvalue  -0.00122743 and components:
   1.    0.00047096
   2.    0.00035238
   3.    0.00232857
   4.    0.00214608
   5.   -0.00200064
   6.   -0.00050039
   7.   -0.00021599
   8.   -0.00018350
   9.    0.00147334
  10.   -0.00020266
  11.   -0.00035098
  12.    0.00070592
  13.    0.00067188
  14.    0.20213549
  15.    0.44345049
  16.    0.41731943
  17.    0.15849240
  18.   -0.21247667
  19.    0.03634140
  20.   -0.40511886
  21.   -0.04928511
  22.   -0.08161817
  23.   -0.19448777
  24.    0.00030738
  25.    0.00253012
  26.   -0.00102154
  27.    0.00001031
  28.   -0.00084033
  29.   -0.00089981
  30.    0.00299294
  31.    0.00073880
  32.   -0.00026528
  33.    0.00068651
  34.   -0.00550813
  35.    0.00169854
  36.   -0.00153223
  37.   -0.00075026
  38.    0.00366560
  39.    0.00007587
  40.    0.00009141
  41.   -0.00147940
  42.    0.00801127
  43.   -0.01462603
  44.    0.00010854
  45.    0.00008177
  46.    0.00388529
  47.   -0.00006978
  48.   -0.00850050
  49.    0.02838375
  50.   -0.02511009
  51.    0.00020177
  52.   -0.00016672
  53.    0.00026449
  54.   -0.33869763
  55.   -0.03639502
  56.   -0.34465001
  57.    0.00154583
  58.    0.00039178
  59.   -0.00236773
  60.   -0.00041529
  61.   -0.00121369
  62.    0.00073876
  63.    0.00564257
  64.    0.00122097
  65.    0.00001695
  66.   -0.00328379
  67.    0.00113781
  68.    0.00452171
  69.   -0.00192704
  70.   -0.00343506
  71.   -0.00612612
  72.   -0.00670598
  73.   -0.00461809
  74.    0.00082508
  75.   -0.00401492
  76.   -0.00407455
  77.    0.01597917
  78.    0.00579361
  79.   -0.02322139
  80.    0.00463942
  81.    0.00441047
  82.    0.00304620
  83.    0.00419722
  84.   -0.00234303
  85.   -0.00278523
  86.   -0.00132713
  87.   -0.00257199
  88.   -0.01018556
  89.   -0.01293298
  90.    0.00885843
  91.   -0.00417389
  92.   -0.12423945
  93.   -0.12006556
  94.   -0.11606801
  95.    0.00036226
  96.   -0.00328603
  97.    0.09101560
  98.    0.00399755
  99.    0.09065333
 100.    0.08736730

Lambda that maximizes along the TS mode:       0.00001404
Searching for lambda that minimizes along all other modes
In cycle   1: lambdaN =  -0.00006087   step =   0.00006087
In cycle   2: lambdaN =  -0.00006087   step =   0.00000000
Lambda that minimizes along all other modes:  -0.00006087
[...]
      2       0.000869   0.000417  -0.000083
      3      -0.000418  -0.000005  -0.000001
      4      -0.000069   0.001848   0.000057
      5      -0.000035   0.000648   0.000006
      6       0.002278  -0.003111   0.000049
      7      -0.001507   0.002165   0.000022
      8      -0.001048   0.000513  -0.000112
      9       0.033670  -0.041738  -0.000193
     10       0.050044  -0.049333  -0.000054
     11       0.000336  -0.000133   0.000209
     12       0.032889   0.043437   0.000152
     13      -0.047979  -0.050433  -0.000041
     14      -0.001784  -0.002073   0.000217
     15      -0.000888  -0.004074   0.000201
     16      -0.002159  -0.003841   0.000083
     17       0.003987   0.010486  -0.000113
     18      -0.017621  -0.023344   0.000842
     19      -0.005524  -0.007312   0.000187
     20      -0.015123  -0.017614   0.000424
     21       0.000759   0.000189   0.000051
     22       0.000483  -0.009489  -0.000418
     23      -0.000284   0.004844   0.000389
     24       0.000423  -0.000185  -0.000033
     25       0.000154  -0.002885   0.000032
     26       0.000724  -0.010901  -0.000180
     27      -0.018444   0.021781  -0.000748
     28       0.005637  -0.006758   0.000145
     29       0.017185  -0.017895   0.000326
     30      -0.001154   0.004554  -0.000119
     31       0.002286  -0.003765   0.000018
     32      -0.004139   0.010164   0.000193
     33      -0.405629   0.395655   0.001057
     34      -0.589494   0.566982   0.000739
     35      -0.005414   0.004976   0.000257
     36      -0.399097  -0.415735  -0.000789
     37       0.565514   0.581089   0.000527
     38       0.022766   0.023405   0.000321
     39      -0.000080  -0.000007   0.001739
     40       0.000022  -0.000102   0.059083
     41       0.000009  -0.000002   0.020959
     42       0.002128   0.000070  -0.027513
     43      -0.000325   0.001646  -0.938971
     44      -0.000038   0.000043  -0.337102


-----------
IR SPECTRUM
-----------

 Mode   freq       eps      Int      T**2         TX        TY        TZ
       cm**-1   L/(mol*cm) km/mol    a.u.
----------------------------------------------------------------------------
  7:     37.75   0.001841    9.30  0.015219  (-0.123205  0.005377 -0.003284)
  8:     90.38   0.000662    3.35  0.002287  ( 0.020270 -0.012464  0.041479)
  9:    153.93   0.012724   64.30  0.025796  ( 0.158977  0.002405 -0.022727)
 10:    168.82   0.000072    0.37  0.000134  ( 0.008379  0.007107 -0.003637)
 11:    247.29   0.024757  125.11  0.031242  ( 0.020785 -0.061709  0.164322)
 12:    395.34   0.000003    0.02  0.000003  ( 0.000309 -0.000456  0.001554)
 13:    608.11   0.001902    9.61  0.000976  ( 0.000228 -0.002704  0.031122)
 14:    723.93   0.008162   41.25  0.003518  ( 0.001665 -0.001229  0.059280)
 15:    781.47   0.000051    0.26  0.000020  (-0.004502 -0.000020  0.000208)
 16:    833.44   0.000256    1.29  0.000096  (-0.000165 -0.002337 -0.009497)
 17:    896.79   0.000504    2.55  0.000175  (-0.013239 -0.000067  0.000208)
 18:    919.49   0.000065    0.33  0.000022  ( 0.000220  0.003021  0.003610)
 19:    926.39   0.001644    8.31  0.000554  (-0.023522 -0.000043  0.000605)
 20:    977.79   0.000072    0.37  0.000023  ( 0.004804 -0.000034 -0.000012)
 21:    985.61   0.000323    1.63  0.000102  (-0.000017  0.009684  0.002914)
 22:   1050.79   0.000334    1.69  0.000099  ( 0.009962  0.000045 -0.000047)
 23:   1078.31   0.001937    9.79  0.000561  (-0.000514 -0.000333 -0.023669)
 24:   1130.74   0.000174    0.88  0.000048  ( 0.000087  0.000858  0.006873)
 25:   1162.23   0.000341    1.72  0.000092  (-0.009570 -0.000058  0.000210)
 26:   1234.06   0.000000    0.00  0.000000  ( 0.000085 -0.000071 -0.000009)
 27:   1245.00   0.000412    2.08  0.000103  (-0.000180 -0.003986 -0.009343)
 28:   1317.50   0.000339    1.71  0.000080  ( 0.008960  0.000048 -0.000245)
 29:   1335.43   0.000061    0.31  0.000014  ( 0.003773 -0.000030  0.000009)
 30:   1339.32   0.000261    1.32  0.000061  ( 0.000080  0.007803 -0.000069)
 31:   1392.83   0.000385    1.94  0.000086  (-0.009282  0.000008  0.000090)
 32:   1490.44   0.000459    2.32  0.000096  (-0.000388  0.002856  0.009375)
 33:   1495.57   0.000584    2.95  0.000122  ( 0.011035  0.000300  0.000178)
 34:   1515.92   0.000598    3.02  0.000123  ( 0.000078 -0.010977 -0.001619)
 35:   1659.35   0.001419    7.17  0.000267  ( 0.000277 -0.010026  0.012896)
 36:   3031.31   0.005541   28.00  0.000570  (-0.001005 -0.007335  0.022707)
 37:   3033.35   0.008974   45.35  0.000923  ( 0.030382 -0.000113  0.000370)
 38:   3077.12   0.003342   16.89  0.000339  (-0.000104 -0.018384 -0.000945)
 39:   3094.66   0.004451   22.49  0.000449  (-0.021045  0.001522  0.001897)
 40:   3096.67   0.004675   23.63  0.000471  (-0.002098 -0.016757 -0.013636)
 41:   3130.26   0.006626   33.49  0.000661  (-0.000571  0.012789 -0.022287)
 42:   3185.38   0.001199    6.06  0.000117  ( 0.010816  0.000522 -0.000418)
 43:   3210.69   0.004077   20.60  0.000396  ( 0.000236 -0.019817 -0.001871)
 44:   3779.76   0.001997   10.09  0.000165  (-0.000256 -0.012402 -0.003317)

* The epsilon (eps) is given for a Dirac delta lineshape.
** The dipole moment derivative (T) already includes vibrational overlap.

The first frequency considered to be a vibration is 7
The total number of vibrations considered is 38


--------------------------
THERMOCHEMISTRY AT 298.15K
--------------------------

Temperature         ...   298.15 K
Pressure            ...     1.00 atm
Total Mass          ...    85.13 AMU
Quasi RRHO          ...     True
Cut-Off Frequency   ...     1.00 cm^-1

Throughout the following assumptions are being made:
  (1) The electronic state is orbitally nondegenerate
      but the spin degeneracy is treated
  (2) There are no thermally accessible electronically excited states
  (3) Hindered rotations indicated by low frequency modes are not
      treated as such but are treated as vibrations and this may
      cause some error
  (4) All equations used are the standard statistical mechanics
      equations for an ideal gas
  (5) All vibrations are strictly harmonic

freq.      37.75  E(vib)   ...       0.54 
freq.      90.38  E(vib)   ...       0.47 
freq.     153.93  E(vib)   ...       0.40 
freq.     168.82  E(vib)   ...       0.38 
freq.     247.29  E(vib)   ...       0.31 
freq.     395.34  E(vib)   ...       0.20 
freq.     608.11  E(vib)   ...       0.10 
freq.     723.93  E(vib)   ...       0.06 
freq.     781.47  E(vib)   ...       0.05 
freq.     833.44  E(vib)   ...       0.04 
freq.     896.79  E(vib)   ...       0.03 
freq.     919.49  E(vib)   ...       0.03 
freq.     926.39  E(vib)   ...       0.03 
freq.     977.79  E(vib)   ...       0.03 
freq.     985.61  E(vib)   ...       0.02 
freq.    1050.79  E(vib)   ...       0.02 
freq.    1078.31  E(vib)   ...       0.02 
freq.    1130.74  E(vib)   ...       0.01 
freq.    1162.23  E(vib)   ...       0.01 
freq.    1234.06  E(vib)   ...       0.01 
freq.    1245.00  E(vib)   ...       0.01 
freq.    1317.50  E(vib)   ...       0.01 
freq.    1335.43  E(vib)   ...       0.01 
freq.    1339.32  E(vib)   ...       0.01 
freq.    1392.83  E(vib)   ...       0.00 
freq.    1490.44  E(vib)   ...       0.00 
freq.    1495.57  E(vib)   ...       0.00 
freq.    1515.92  E(vib)   ...       0.00 
freq.    1659.35  E(vib)   ...       0.00 
freq.    3031.31  E(vib)   ...       0.00 
freq.    3033.35  E(vib)   ...       0.00 
freq.    3077.12  E(vib)   ...       0.00 
freq.    3094.66  E(vib)   ...       0.00 
freq.    3096.67  E(vib)   ...       0.00 
freq.    3130.26  E(vib)   ...       0.00 
freq.    3185.38  E(vib)   ...       0.00 
freq.    3210.69  E(vib)   ...       0.00 
freq.    3779.76  E(vib)   ...       0.00 

------------
INNER ENERGY
------------

The inner energy is: U= E(el) + E(ZPE) + E(vib) + E(rot) + E(trans)
    E(el)   - is the total energy from the electronic structure calculation
              = E(kin-el) + E(nuc-el) + E(el-el) + E(nuc-nuc)
    E(ZPE)  - the the zero temperature vibrational energy from the frequency calculation
    E(vib)  - the the finite temperature correction to E(ZPE) due to population
              of excited vibrational states
    E(rot)  - is the rotational thermal energy
    E(trans)- is the translational thermal energy

Summary of contributions to the inner energy U:
Electronic energy                ...   -270.66421401 Eh
Zero point energy                ...      0.12719742 Eh      79.82 kcal/mol
Thermal vibrational correction   ...      0.00449324 Eh       2.82 kcal/mol
Thermal rotational correction    ...      0.00141627 Eh       0.89 kcal/mol
Thermal translational correction ...      0.00141627 Eh       0.89 kcal/mol
-----------------------------------------------------------------------
Total thermal energy                   -270.52969080 Eh


Summary of corrections to the electronic energy:
(perhaps to be used in another calculation)
Total thermal correction                  0.00732578 Eh       4.60 kcal/mol
Non-thermal (ZPE) correction              0.12719742 Eh      79.82 kcal/mol
-----------------------------------------------------------------------
Total correction                          0.13452320 Eh      84.41 kcal/mol


--------
ENTHALPY
--------

The enthalpy is H = U + kB*T
                kB is Boltzmann's constant
Total thermal energy              ...   -270.52969080 Eh 
Thermal Enthalpy correction       ...      0.00094421 Eh       0.59 kcal/mol
-----------------------------------------------------------------------
Total Enthalpy                    ...   -270.52874660 Eh


Note: Only C1 symmetry has been detected, increase convergence thresholds 
      if your molecule has a higher symmetry. Symmetry factor of 1.0 is   
      used for the rotational entropy correction. 
 

Note: Rotational entropy computed according to Herzberg 
Infrared and Raman Spectra, Chapter V,1, Van Nostrand Reinhold, 1945 
Point Group:  C1, Symmetry Number:   1  
Rotational constants in cm-1:     0.134253     0.090042     0.088677 

Vibrational entropy computed according to the QRRHO of S. Grimme
Chem.Eur.J. 2012 18 9955 using a reference frequency of 100.0 cm-1


-------
ENTROPY
-------

The entropy contributions are T*S = T*(S(el)+S(vib)+S(rot)+S(trans))
     S(el)   - electronic entropy
     S(vib)  - vibrational entropy
     S(rot)  - rotational entropy
     S(trans)- translational entropy
The entropies will be listed as multiplied by the temperature to get
units of energy

Electronic entropy                ...      0.00065446 Eh      0.41 kcal/mol
Vibrational entropy               ...      0.00808695 Eh      5.07 kcal/mol
Rotational entropy                ...      0.01273909 Eh      7.99 kcal/mol
Translational entropy             ...      0.01864317 Eh     11.70 kcal/mol
-----------------------------------------------------------------------
Final entropy term                ...      0.04012366 Eh     25.18 kcal/mol

In case the symmetry of your molecule has not been determined correctly
or in case you have a reason to use a different symmetry number we print 
out the resulting rotational entropy values for sn=1,12:

 non-linear molecules -----------------------------------
|  sn= 1 | S(rot)=       0.01273909 Eh      7.99 kcal/mol|
|  sn= 2 | S(rot)=       0.01208463 Eh      7.58 kcal/mol|
|  sn= 3 | S(rot)=       0.01170180 Eh      7.34 kcal/mol|
|  sn= 4 | S(rot)=       0.01143018 Eh      7.17 kcal/mol|
|  sn= 5 | S(rot)=       0.01121949 Eh      7.04 kcal/mol|
|  sn= 6 | S(rot)=       0.01104734 Eh      6.93 kcal/mol|
|  sn= 7 | S(rot)=       0.01090180 Eh      6.84 kcal/mol|
|  sn= 8 | S(rot)=       0.01077572 Eh      6.76 kcal/mol|
|  sn= 9 | S(rot)=       0.01066451 Eh      6.69 kcal/mol|
|  sn=10 | S(rot)=       0.01056503 Eh      6.63 kcal/mol|
|  sn=11 | S(rot)=       0.01047504 Eh      6.57 kcal/mol|
|  sn=12 | S(rot)=       0.01039289 Eh      6.52 kcal/mol|
 linear molecules ---------------------------------------
|  Dinfh | S(rot)=       0.00761333 Eh      4.78 kcal/mol|
|  Cinfv | S(rot)=       0.00826778 Eh      5.19 kcal/mol|
 --------------------------------------------------------


-------------------
GIBBS FREE ENERGY
-------------------

The Gibbs free energy is G = H - T*S

Total enthalpy                    ...   -270.52874660 Eh 
Total entropy correction          ...     -0.04012366 Eh    -25.18 kcal/mol
-----------------------------------------------------------------------
Final Gibbs free energy         ...   -270.56887026 Eh

For completeness - the Gibbs free energy minus the electronic energy
G-E(el)                           ...      0.09534375 Eh     59.83 kcal/mol



--------------------------------
SUGGESTED CITATIONS FOR THIS RUN
--------------------------------

Below you find a list of papers that are relevant to this ORCA run
We neither can nor want to force you to cite these papers, but we appreciate if you do
You receive ORCA, which is the product of decades of hard work by many enthusiastic individuals, for free
The only thing we kindly ask in return is that you cite our papers,
We deeply appreciate it, if you show your appreciation for ORCA by not just citing the generic ORCA reference.

Please note that relegating all ORCA citations to the supporting information does *not* help us.
SI sections are not indexed - citations you put there will not count into any citation statistics
But we need these citations in order to attract the funding resources that allow us to do what we are doing

Therefore, if you are a happy ORCA user, please consider citing a few of the papers listed below in the main body of your paper

In addition to the list printed below, the program has created the file neb.bibtex that contains the list in bibtex format
You can import this file easily into all common literature databanks and citation aid programs

It goes without saying that in many instances, there are alternative algorithms to achieve similar
results as the ones you have gotten from ORCA. It is, of course, also the case that in some instances
ORCA just re-implements algorithms worked out by others. We are fully aware of that and we are also
fully appreciative of our colleagues work. Hence this citation list should not be read as indicating
that the listed papers, which are focused on our own work, are the only ones worth citing. It simply
meant to make it easier for users to cite ORCA specific papers. It is not a substitute for doing your
own literature research and citing the relevant literature in a scientifically appropriate manner.

List of essential papers. We consider these as the minimum necessary citations

  1. Neese, F.
     Software update: the ORCA program system, version 6.0
     WIRES Comput. Molec. Sci. 2025 15(1), e70019
     doi.org/10.1002/wcms.70019

List of papers to cite with high priority. The work reported in these papers was absolutely
necessary for this run to complete.
Our perspective: the developers of density functionals and basis sets usually get cited in chemistry papers
Good! But without the algorithms to do something with them, the functionals or basis sets would not do anything.
Hence, in our opinion, the algorithm design and method developments papers are equally worthy of getting cited

  1. Neese, F.
     An improvement of the resolution of the identity approximation for the formation of the Coulomb matrix
     J. Comp. Chem. 2003 24(14), 1740-1747
     doi.org/10.1002/jcc.10318
  2. Neese, F.; Schwabe, T.; Grimme, S.
     Analytic derivatives for perturbatively corrected 'double hybrid' density functionals: Theory, implementation, and applications
     J. Chem. Phys. 2007 126(12), Art. No. 124115
     doi.org/10.1063/1.2712433
  3. Neese, F.; Wennmohs, F.; Hansen, A.; Becker, U.
     Efficient, approximate and parallel Hartree-Fock and hybrid DFT calculations. A 'chain-of-spheres' algorithm for the Hartree-Fock exchange
     Chem. Phys. 2009 356(1-3), 98-109
     doi.org/10.1016/j.chemphys.2008.10.036
  4. Kossmann, S.; Neese, F.
     Efficient Structure Optimization with Second-Order Many-Body Perturbation Theory: The RIJCOSX-MP2 Method
     J. Theo. Comp. Chem. 2010 6 , 2325-2338
     doi.org/10.1021/ct100199k
  5. Caldeweyher, E.; Bannwarth, C.; Grimme, S.
     Extension of the D3 dispersion coefficient model
     J. Chem. Phys. 2017 147 , 034112
     doi.org/10.1063/1.4993215
  6. Caldeweyher, E.; Ehlert, S.; Hansen, A.; Neugebauer, H.; Spicher, S.; Bannwarth, C.; Grimme, S.
     A generally applicable atomic-charge dependent London dispersion correction
     J. Chem. Phys. 2019 150 , 154122
     doi.org/10.1063/1.5090222
  7. Asgeirsson, V.; Orri Birgisson, B.; Björnsson, R.; Becker, U.; Neese, F.; Riplinger, C.; Jonsson, H.
     Nudged Elastic Band Method for Molecular Reactions Using Energy-Weighted Springs Combined with Eigenvector Following
     J. Chem. Theory Comput. 2021 17(8), 4929-4945
     doi.org/10.1021/acs.jctc.1c00462
  8. Helmich-Paris, B.; de Souza, B.; Neese, F.; Izsák, R.
     An improved chain of spheres for exchange algorithm
     J. Chem. Phys. 2021 155(10), 104109
     doi.org/10.1063/5.0058766
  9. Neese, F.
     The SHARK Integral Generation and Digestion System
     J. Comp. Chem. 2022 44(3), 381
     doi.org/10.1002/jcc.26942
 10. Schmerwitz, Y.L.A.; Asgeirsson, V.; Jonsson, H.
     Improved Initialization of Optimal Path Calculations
     Using Sequential Traversal over the
     Image-Dependent Pair Potential Surface
     J. Chem. Theory Comput. 2023 20(1), 155-163
     doi.org/10.1021/acs.jctc.3c01111

List of suggested additional citations. These are papers that are important in the 'surrounding' of 
of this run, or papers that preceded the highly important papers. If you like your results we are grateful for a citation.

  1. Izsak, R.; Neese, F.
     An overlap fitted chain of spheres exchange method
     J. Chem. Phys. 2011 135 , 144105
     doi.org/10.1063/1.3646921
  2. Izsak, R.; Hansen, A.; Neese, F.
     The resolution of identity and chain of spheres approximations for the LPNO-CCSD singles Fock term
     Molec. Phys. 2012 110 , 2413-2417
     doi.org/10.1080/00268976.2012.687466
  3. Neese, F.
     The ORCA program system
     WIRES Comput. Molec. Sci. 2012 2(1), 73-78
     doi.org/10.1002/wcms.81
  4. Izsak, R.; Neese, F.; Klopper, W.
     Robust fitting techniques in the chain of spheres approximation to the Fock exchange: The role of the complementary space
     J. Chem. Phys. 2013 139 , 
     doi.org/10.1063/1.4819264
  5. Neese, F.
     Software update: the ORCA program system, version 4.0
     WIRES Comput. Molec. Sci. 2018 8(1), 1-6
     doi.org/10.1002/wcms.1327
  6. Neese, F.; Wennmohs, F.; Becker, U.; Riplinger, C.
     The ORCA quantum chemistry program package
     J. Chem. Phys. 2020 152(22), 224108
     doi.org/10.1063/5.0004608
  7. Neese, F.
     Software update: The ORCA program system—Version 5.0
     WIRES Comput. Molec. Sci. 2022 12(1), e1606
     doi.org/10.1002/wcms.1606

List of optional additional citations

  1. Neese, F.
     Approximate second-order SCF convergence for spin unrestricted wavefunctions
     Chem. Phys. Lett. 2000 325(1-3), 93-98
     doi.org/10.1016/s0009-2614(00)00662-x

Timings for individual modules:

Sum of individual times          ...    12491.637 sec (= 208.194 min)
Startup calculation              ...      156.049 sec (=   2.601 min)   1.2 %
SCF iterations                   ...     1655.601 sec (=  27.593 min)  13.3 %
Property calculations            ...        1.863 sec (=   0.031 min)   0.0 %
MP2 module                       ...     1569.245 sec (=  26.154 min)  12.6 %
Geometry relaxation              ...        0.153 sec (=   0.003 min)   0.0 %
Numerical frequency calculation  ...     4340.179 sec (=  72.336 min)  34.7 %
NEB Iterations                   ...     4768.546 sec (=  79.476 min)  38.2 %
                             ****ORCA TERMINATED NORMALLY****
TOTAL RUN TIME: 0 days 3 hours 25 minutes 26 seconds 486 msec
