
                                 *****************
                                 * O   R   C   A *
                                 *****************

                                            #,                                       
                                            ###                                      
                                            ####                                     
                                            #####                                    
                                            ######                                   
                                           ########,                                 
                                     ,,################,,,,,                         
                               ,,#################################,,                 
                          ,,##########################################,,             
                       ,#########################################, ''#####,          
                    ,#############################################,,   '####,        
                  ,##################################################,,,,####,       
                ,###########''''           ''''###############################       
              ,#####''   ,,,,##########,,,,          '''####'''          '####       
            ,##' ,,,,###########################,,,                        '##       
           ' ,,###''''                  '''############,,,                           
         ,,##''                                '''############,,,,        ,,,,,,###''
      ,#''                                            '''#######################'''  
     '                                                          ''''####''''         
             ,#######,   #######,   ,#######,      ##                                
            ,#'     '#,  ##    ##  ,#'     '#,    #''#        ,####,    ,#,          
            ##       ##  ##   ,#'  ##            #'  '#       #'       ,# #          
            ##       ##  #######   ##           ,######,      #####,      #          
            '#,     ,#'  ##    ##  '#,     ,#' ,#      #,     #,   #      #          
             '#######'   ##     ##  '#######'  #'      '#     '####' #    #          



                #########################################################
                #                        -***-                          #
                #          Department of theory and spectroscopy        #
                #                                                       #
                #                      Frank Neese                      #
                #                                                       #
                #     Directorship, Architecture, Infrastructure        #
                #                    SHARK, DRIVERS                     #
                #        Core code/Algorithms in most modules           #
                #                                                       #
                #        Max Planck Institute fuer Kohlenforschung      #
                #                Kaiser Wilhelm Platz 1                 #
                #                 D-45470 Muelheim/Ruhr                 #
                #                      Germany                          #
                #                                                       #
                #                  All rights reserved                  #
                #                        -***-                          #
                #########################################################


                         Program Version 6.1.1  -  RELEASE   -
                                (GIT: $487d211c$)
                          ($2025-11-21 10:33:24 +0100$)


 With contributions from (in alphabetic order):
[Max-Planck-Institut fuer Kohlenforschung]                               
  Daniel Aravena         : Magnetic Suceptibility                        
  Michael Atanasov       : Ab Initio Ligand Field Theory (pilot matlab implementation)
  Alexander A. Auer      : GIAO ZORA, VPT2 properties, NMR spectrum      
  Ute Becker             : All parallelization in ORCA, NUMFREQ, NUMCALC 
  Giovanni Bistoni       : ED, misc. LED, open-shell LED, HFLD           
  Dmytro Bykov           : pre 5.0 version of the SCF Hessian            
  Marcos Casanova-Páez   : Triplet and SCS-CIS(D). UHF-(DLPNO)-IP/EA/STEOM-CCSD. UHF-CVS-IP/STEOM-CCSD   
  Vijay G. Chilkuri      : MRCI spin determinant printing, contributions to CSF-ICE 
  Pauline Colinet        : FMM embedding                                 
  Dipayan Datta          : RHF DLPNO-CCSD density                        
  Achintya Kumar Dutta   : EOM-CC, STEOM-CC                              
  Nicolas Foglia         : Exact transition moments, OPA infrastructure, MCD improvements    
  Dmitry Ganyushin       : Spin-Orbit,Spin-Spin,Magnetic field MRCI      
  Miquel Garcia-Rates    : C-PCM and meta-GGA Hessian, CCSD/C-PCM, Gaussian charge scheme 
  Tiago L. C. Gouveia    : GS-ROHF, GS-ROCIS                             
  Yang Guo               : DLPNO-NEVPT2, F12-NEVPT2, CIM, IAO-localization        
  Andreas Hansen         : Spin unrestricted coupled pair/coupled cluster methods 
  Ingolf Harden          : AUTO-CI MPn and infrastructure                
  Benjamin Helmich-Paris : MC-RPA, TRAH-(SCF,CASSCF), AVAS, COSX integrals, SCF dyn. polar., MC-PDFT, srDFT 
  Lee Huntington         : MR-EOM, pCC                                   
  Robert Izsak           : Overlap fitted RIJCOSX, COSX-SCS-MP3, EOM     
  Riya Kayal             : Wick's Theorem for AUTO-CI, AUTO-CI UHF-CCSDT 
  Emily Kempfer          : AUTO-CI RHF CISDT and CCSDT, approximate NEVPT4
  Christian Kollmar      : KDIIS, OOCD, Brueckner-CCSD(T), CCSD density, CASPT2, CASPT2-K, improved NEVPT2 
  Axel Koslowski         : Symmetry handling                             
  Simone Kossmann        : meta-GGA functionals, TD-DFT gradient, OOMP2, (MP2 Hessian; deprecated post 5.0) 
  Lucas Lang             : DCDCAS, Hyperfine gauge corrections, ICE-SOC+SSC
  Marvin Lechner         : AUTO-CI (C++ implementation), FIC-MRCC        
  Spencer Leger          : CASSCF response                               
  Dagmar Lenk            : GEPOL surface, SMD, ORCA-2-JSON               
  Dimitrios Liakos       : Extrapolation schemes; Compound Job, Property file
  Dimitrios Manganas     : Further ROCIS development; embedding schemes. LFT, Crystal Embedding 
  Dimitrios Pantazis     : SARC Basis sets                               
  Anastasios Papadopoulos: AUTO-CI, single reference methods and gradients 
  Taras Petrenko         : pre 6.0 DFT Hessian and TD-DFT gradient,  ECA, NRVS 
  Petra Pikulova         : Analytic Raman intensities                    
  Peter Pinski           : DLPNO-MP2, DLPNO-MP2 Gradient                 
  Shashank Vittal Rao    : ES-AILFT, MagRelax                            
  Christoph Reimann      : Effective Core Potentials                     
  Marius Retegan         : Local ZFS, SOC                                
  Christoph Riplinger    : Optimizer, TS searches, QM/MM, DLPNO-CCSD(T), (RO)-DLPNO pert. Triples 
  Michael Roemelt        : Original ROCIS implementation, recursive CI coupling coefficients
  Masaaki Saitow         : Open-shell DLPNO-CCSD energy and density      
  Barbara Sandhoefer     : DKH picture change effects                    
  Yorick L. A. Schmerwitz: GMF and freeze-and-release deltaSCF, NEB S-IDPP initial path                    
  Kantharuban Sivalingam : CASSCF convergence/infrastructure, NEVPT2, NEVPT3, NEVPT4(SD), FIC-MRCI and CEPA variants
  Bernardo de Souza      : ESD, SOC TD-DFT                               
  Georgi L. Stoychev     : AutoAux, RI-MP2 NMR, DLPNO-MP2 response, X2C  
  Van Anh Tran           : RI-MP2 g-tensors                              
  Willem Van den Heuvel  : Paramagnetic NMR                              
  Zikuan Wang            : NOTCH, Electric field optimization            
  Frank Wennmohs         : Technical directorship and infrastructure     
  Hang Xu                : AUTO-CI-Response properties                   
                                                                         
[FACCTs GmbH]                                                            
  Markus Bursch, Nicolas Foglia, Miquel Garcia-Rates, Ingolf Harden, Hagen Neugebauer, Anastasios Papadopoulos, 
  Christoph Riplinger, Bernardo de Souza, Georgi L. Stoychev                                                    
                                                                 
  APM, various basis sets, CI-OPT, improved COSX, DLPNO-Multilevel,           
  DOCKER, DRACO, updates on ESD, Fragmentator, GOAT, IRC, LR-CPCM, L-BFGS, MBIS, meta-GGA TD-DFT gradient, ML-optimized integration grids, 
  MM, NACMEs, nearIR, NEB, NEB-TS, NL-DFT gradient (VV10), 2- and 3-layer-ONIOM, interface openCOSMO-RS, QMMM,   
  Crystal-QMMM, RESP, rigid body optimization, SF, symmetry and pop. for TD-DFT, various functionals, SOLVATOR                                   
                                                                         
[Other institutions]                                                     
  V. Asgeirsson          : NEB                                           
  Christoph Bannwarth    : sTDA-DFT, sTD-DFT, PBEh-3c, B97-3c, D3        
  Giovanni Bistoni       : ETS/NOCV, ADLD/ADEX, COVALED                  
  Martin Brehm           : Molecular dynamics                            
  Ronald Cardenas        : ETS/NOCV                                      
  Martina Colucci        : COVALED                                       
  Sebastian Ehlert       : rSCAN, r2SCAN, r2SCAN-3c, D4, dhf basis sets  
  Marvin Friede          : D4 for Fr, Ra, Ac-Lr                          
  Lars Goerigk           : TD-DFT with DH, B97 family of functionals     
  Stefan Grimme          : VdW corrections, initial TS optimization, DFT functionals, gCP, sTDA/sTD-DF 
  Waldemar Hujo          : DFT-NL                                        
  H. Jonsson             : NEB                                           
  Holger Kruse           : gCP                                           
  Marcel Mueller         : wB97X-3c, vDZP basis set                      
  Hagen Neugebauer       : wr2SCAN, Native XTB                           
  Gianluca Regni         : ADLD/ADEX                                     
  Tobias Risthaus        : pre 6.0 range-separated hybrid DFT and stability analysis
  Lukas Wittmann         : regularized MP2, r2SCAN double-hybrids, wr2SCAN        
                                                                         
We gratefully acknowledge several colleagues who have allowed us to      
interface, adapt or use parts of their codes:                            
  Ed Valeev, F. Pavosevic, A. Kumar             : LibInt (2-el integral package), F12 methods 
  Garnet Chan, S. Sharma, J. Yang, R. Olivares  : DMRG                   
  Ulf Ekstrom                                   : XCFun DFT Library      
  Mihaly Kallay                                 : mrcc  (arbitrary order and MRCC methods)
  Frank Weinhold                                : gennbo (NPA and NBO analysis)           
  Simon Mueller                                 : openCOSMO-RS                            
  Christopher J. Cramer and Donald G. Truhlar   : smd solvation model                     
  S Lehtola, MJT Oliveira, MAL Marques          : LibXC Library                           
  Liviu Ungur et al                             : ANISO software                          


 Your calculation uses the libint2 library for the computation of 2-el integrals
 For citations please refer to: http://libint.valeyev.net

 Your ORCA version has been built with support for libXC version: 7.0.0
 For citations please refer to: https://libxc.gitlab.io

 This ORCA versions uses:
   CBLAS   interface :  Fast vector & matrix operations
   LAPACKE interface :  Fast linear algebra routines
   SCALAPACK package :  Parallel linear algebra routines
   Shared memory     :  Shared parallel matrices
   BLAS/LAPACK       :  OpenBLAS 0.3.29  USE64BITINT DYNAMIC_ARCH NO_AFFINITY Zen SINGLE_THREADED
        Core in use  :  Zen
   Copyright (c) 2011-2014, The OpenBLAS Project


  ***********************************
  * Starting time: Tue Mar 10 20:50:38 2026
  * Host name:     a3-20
  * Process ID:    1038174
  * Working dir.:  /tmp/lscratch/avcopan/43483141
  ***********************************

NOTE: MaxCore=6000 MB was set to SCF,MP2,MDCI,CIPSI,MRCI,RASCI and CIS
      => If you want to overwrite this, your respective input block should be placed after the MaxCore statement


***************************************
The coordinates will be read from file: neb.xyz
***************************************


Your calculation utilizes the atom-pairwise dispersion correction
based on EEQ partial charges (D4)


Warning: RI is on but no J-basis has been assigned. Assigning Def2/J (nothing to worry about!)
================================================================================

----- Orbital basis set information -----
Your calculation utilizes the basis: def2-TZVPP
   F. Weigend and R. Ahlrichs, Phys. Chem. Chem. Phys. 7, 3297 (2005).

----- AuxJ basis set information -----
Your calculation utilizes the auxiliary basis: def2/J
   H-Rn: F. Weigend, Phys. Chem. Chem. Phys. 8, 1057 (2006).
   Fr-Lr: K. Eichkorn, F. Weigend, O. Treutler, R. Ahlrichs; Theor. Chem. Acc. 97, 119 (1997).

----- AuxC basis set information -----
Your calculation utilizes the auxiliary basis: def2-TZVPP/C
  H-La, Hf-Rn : A. Hellweg, C. Hattig, S. Hofener and W. Klopper, Theor. Chem. Acc. 117, 587 (2007).
        Ce-Lu : J. Chmela and M. E. Harding, Mol. Phys. (2018).

================================================================================
                                        WARNINGS
                       Please study these warnings very carefully!
================================================================================


WARNING: your system is open-shell and RHF/RKS was chosen
  ===> : WILL SWITCH to UHF/UKS


WARNING: The frozen-core approximation for MP2-gradient calculations is turned on by default.

WARNING: The environment variable RSH_COMMAND is not set!
  ===> : All Displacements for the Numerical Hessian or Gradient calculation
         will be started on localhost

WARNING: Geometry Optimization
  ===> : Switching off AutoStart
         For restart on a previous wavefunction, please use MOREAD

WARNING: The frozen-core approximation is turned on by default for 
         the MP2 part of double-hybrid DFT.

================================================================================
                                       INPUT FILE
================================================================================
NAME = opt.inp
|  1> % MaxCore 6000
|  2> ! PAL8
|  3> ! REVDSD-PBEP86-D4/2021 def2-TZVPP def2-TZVPP/c
|  4> ! VeryTightSCF DefGrid3
|  5> ! OptTS
|  6> ! NumFreq
|  7> %geom
|  8>    InHess      read
|  9>    InHessName  "neb.hess"
| 10> end
| 11> * xyzfile 0 2 neb.xyz
| 12> 
| 13>                          ****END OF INPUT****
================================================================================

                       *****************************
                       * Geometry Optimization Run *
                       *****************************

Geometry optimization settings:
Update method            Update   .... Bofill
Choice of coordinates    CoordSys .... (2022) Redundant Internals
Initial Hessian          InHess   .... Read
Max. no of cycles        MaxIter  .... 50

Convergence Tolerances:
Energy Change            TolE     ....  5.0000e-06 Eh
Max. Gradient            TolMAXG  ....  3.0000e-04 Eh/bohr
RMS Gradient             TolRMSG  ....  1.0000e-04 Eh/bohr
Max. Displacement        TolMAXD  ....  4.0000e-03 bohr
RMS Displacement         TolRMSD  ....  2.0000e-03 bohr
Strict Convergence                .... False

------------------------------------------------------------------------------
                        ORCA OPTIMIZATION COORDINATE SETUP
------------------------------------------------------------------------------

The optimization will be done in redundant internal coordinates (2022)
Making redundant internal coordinates   ...  (2022 redundants) done
Following TS mode number                ...     0
Evaluating the initial hessian          ... (Reading Exact Hessian)...  
InHessName: neb.hess	The file <neb.hess> is opened as a .hess file
done
done
Evaluating the coordinates              ...  done
Calculating the B-matrix                .... done
Calculating the G-matrix                .... done
The number of degrees of freedom        ....  184

    -----------------------------------------------------------------
                    Redundant Internal Coordinates


    -----------------------------------------------------------------
         Definition                    Initial Value    d2E/dq (diagonal element)
    -----------------------------------------------------------------
      1. B(C   1,C   0)                  1.5447         0.130090   
      2. B(C   2,C   1)                  1.5447         0.130834   
      3. B(C   3,C   2)                  1.5086         0.119935   
      4. B(C   4,C   0)                  1.5085         0.117273   
      5. B(C   4,C   3)                  1.3381         0.192413   
      6. B(H   5,C   0)                  1.0962         0.327382   
      7. B(H   6,C   0)                  1.0917         0.336870   
      8. B(H   7,C   1)                  1.0904         0.341613   
      9. B(H   8,C   1)                  1.0910         0.297674   
     10. B(H   9,C   2)                  1.0917         0.336484   
     11. B(H  10,C   2)                  1.0962         0.327416   
     12. B(H  11,C   3)                  1.0839         0.315103   
     13. B(H  12,C   4)                  1.0838         0.313898   
     14. B(O  13,H   8)                  2.6280         0.032083   
     15. B(O  13,C   0)                  3.3533         0.009024   
     16. B(O  13,H   9)                  3.2584         0.011858   
     17. B(O  13,H   6)                  3.2519         0.011712   
     18. B(O  13,C   1)                  3.2359         0.011928   
     19. B(O  13,C   3)                  3.0054         0.007617   
     20. B(O  13,C   4)                  3.0031         0.007362   
     21. B(O  13,C   2)                  3.3570         0.007519   
     22. B(H  14,O  13)                  0.9689         0.245451   
     23. B(H  14,H   8)                  3.2684         0.048126   
     24. B(H  14,H  12)                  2.9315         0.020658   
     25. B(H  14,H  11)                  2.9144         0.021214   
     26. B(H  14,C   4)                  2.7183         0.004412   
     27. B(H  14,C   3)                  2.7083         0.004315   
     28. A(C   1,C   0,C   4)          102.9041         0.008793   
     29. A(C   1,C   0,H   5)          111.8820         0.007575   
     30. A(C   1,C   0,H   6)          112.3406         0.009315   
     31. A(H   6,C   0,O  13)           75.2730         0.002937   
     32. A(H   5,C   0,O  13)          173.2828         0.014322   
     33. A(C   1,C   0,O  13)           72.2441         0.003116   
     34. A(C   4,C   0,H   5)          109.8894         0.016270   
     35. A(C   4,C   0,O  13)           63.5809         0.001836   
     36. A(H   5,C   0,H   6)          107.0813         0.004727   
     37. A(C   4,C   0,H   6)          112.8045         0.006948   
     38. A(C   0,C   1,H   7)          112.7228         0.007281   
     39. A(C   2,C   1,H   7)          112.7208         0.005964   
     40. A(C   0,C   1,H   8)          108.8692         0.007453   
     41. A(C   0,C   1,O  13)           80.7149         0.003687   
     42. A(H   8,C   1,O  13)           47.6628         0.010007   
     43. A(H   7,C   1,H   8)          108.0091         0.013223   
     44. A(H   7,C   1,O  13)          155.6717         0.004420   
     45. A(C   2,C   1,O  13)           80.8591         0.003037   
     46. A(C   2,C   1,H   8)          108.8768         0.010873   
     47. A(C   0,C   1,C   2)          105.5363         0.014758   
     48. A(C   3,C   2,O  13)           63.5423         0.001713   
     49. A(C   1,C   2,O  13)           72.1204         0.002821   
     50. A(H   9,C   2,O  13)           75.4308         0.002268   
     51. A(H  10,C   2,O  13)          173.2866         0.033527   
     52. A(H   9,C   2,H  10)          107.0693         0.007110   
     53. A(C   3,C   2,H  10)          109.8958         0.035324   
     54. A(C   1,C   2,H  10)          111.8798         0.014260   
     55. A(C   3,C   2,H   9)          112.8195         0.005190   
     56. A(C   1,C   2,H   9)          112.3364         0.008689   
     57. A(C   1,C   2,C   3)          102.9021         0.007955   
     58. A(H  11,C   3,O  13)          104.6759         0.002262   
     59. A(C   4,C   3,O  13)           77.0367         0.002207   
     60. A(C   2,C   3,O  13)           89.7534         0.003211   
     61. A(C   4,C   3,H  11)          124.8856         0.007471   
     62. A(C   2,C   3,H  11)          123.1950         0.010211   
     63. A(C   2,C   3,C   4)          111.8256         0.007624   
     64. A(C   3,C   4,O  13)           77.2276         0.002124   
     65. A(C   0,C   4,O  13)           89.6840         0.003308   
     66. A(C   3,C   4,H  12)          124.8902         0.007751   
     67. A(C   0,C   4,H  12)          123.1946         0.008119   
     68. A(H  12,C   4,O  13)          104.5277         0.002210   
     69. A(C   0,C   4,C   3)          111.8240         0.007102   
     70. A(C   0,O  13,C   2)           43.0089         0.004576   
     71. A(C   1,O  13,C   2)           27.0205         0.003553   
     72. A(C   4,O  13,H  14)           63.8117         0.000753   
     73. A(C   2,O  13,C   3)           26.7044         0.003369   
     74. A(C   2,O  13,C   4)           43.1064         0.005545   
     75. A(C   2,O  13,H  14)           88.7263         0.002669   
     76. A(C   0,O  13,C   1)           27.0409         0.003516   
     77. A(C   0,O  13,C   3)           43.1304         0.005576   
     78. A(C   0,O  13,C   4)           26.7351         0.003288   
     79. A(C   0,O  13,H  14)           89.8246         0.002453   
     80. A(C   1,O  13,C   3)           44.8022         0.004097   
     81. A(C   1,O  13,C   4)           44.8158         0.004110   
     82. A(C   1,O  13,H  14)          105.9973         0.001807   
     83. A(C   3,O  13,C   4)           25.7357         0.006144   
     84. A(C   3,O  13,H  14)           63.0863         0.000757   
     85. D(H   7,C   1,C   0,H   6)     93.6781         0.007422   
     86. D(H   7,C   1,C   0,H   5)    -26.8044         0.009763   
     87. D(C   2,C   1,C   0,H   5)     96.6343         0.012188   
     88. D(H   7,C   1,C   0,O  13)    158.8318         0.003764   
     89. D(H   7,C   1,C   0,C   4)   -144.7177         0.004578   
     90. D(C   2,C   1,C   0,H   6)   -142.8832         0.007393   
     91. D(C   2,C   1,C   0,O  13)    -77.7295         0.003155   
     92. D(C   2,C   1,C   0,C   4)    -21.2789         0.003814   
     93. D(C   3,C   2,C   1,C   0)     21.2760         0.003979   
     94. D(C   3,C   2,C   1,H   7)    144.7160         0.004575   
     95. D(H   9,C   2,C   1,H   7)    -93.6650         0.005693   
     96. D(H   9,C   2,C   1,C   0)    142.8950         0.006069   
     97. D(H   9,C   2,C   1,O  13)     65.2726         0.003569   
     98. D(C   3,C   2,C   1,H   8)    -95.4555         0.007844   
     99. D(H   9,C   2,C   1,H   8)     26.1635         0.009385   
    100. D(C   3,C   2,C   1,O  13)    -56.3464         0.001719   
    101. D(H  11,C   3,C   2,O  13)    107.4542         0.002234   
    102. D(C   4,C   3,C   2,C   1)    -13.6773         0.003175   
    103. D(C   4,C   3,C   2,H   9)   -134.9679         0.005577   
    104. D(H  11,C   3,C   2,C   1)    169.6911         0.003475   
    105. D(H  11,C   3,C   2,H   9)     48.4005         0.005875   
    106. D(H  11,C   3,C   2,H  10)    -71.0023         0.003050   
    107. D(C   4,C   3,C   2,H  10)    105.6293         0.003971   
    108. D(C   4,C   3,C   2,O  13)    -75.9142         0.002809   
    109. D(C   3,C   4,C   0,O  13)     76.0923         0.002703   
    110. D(C   3,C   4,C   0,H   5)   -105.6230         0.003374   
    111. D(C   3,C   4,C   0,H   6)    134.9732         0.005579   
    112. D(H  12,C   4,C   0,H   5)     71.0575         0.002509   
    113. D(H  12,C   4,C   0,C   1)   -169.6352         0.003574   
    114. D(O  13,C   4,C   3,H  11)    -98.9998         0.003252   
    115. D(H  12,C   4,C   0,H   6)    -48.3463         0.006159   
    116. D(H  12,C   4,C   3,O  13)     98.9456         0.003249   
    117. D(H  12,C   4,C   3,H  11)     -0.0541         0.003349   
    118. D(H  12,C   4,C   3,C   2)   -176.6178         0.004394   
    119. D(C   0,C   4,C   3,O  13)    -84.4410         0.003565   
    120. D(C   0,C   4,C   3,H  11)    176.5593         0.004580   
    121. D(C   3,C   4,C   0,C   1)     13.6843         0.003613   
    122. D(O  13,C   4,C   3,C   2)     84.4365         0.003446   
    123. D(C   0,C   4,C   3,C   2)     -0.0044         0.003559   
    124. D(H  12,C   4,C   0,O  13)   -107.2272         0.002219   
    125. D(C   3,O  13,C   1,C   2)     35.3091         0.006701   
    126. D(C   3,O  13,C   1,C   0)    -72.2208         0.012825   
    127. D(C   4,O  13,C   1,H   8)   -161.6968         0.011215   
    128. D(C   4,O  13,C   1,C   2)     72.1520         0.012084   
    129. D(C   4,O  13,C   1,C   0)    -35.3778         0.006997   
    130. D(H  14,O  13,C   1,H   8)    178.3392         0.008926   
    131. D(H  14,O  13,C   1,C   2)     52.1880         0.005390   
    132. D(H  14,O  13,C   1,C   0)    -55.3418         0.006009   
    133. D(C   1,O  13,C   0,C   4)   -114.8929         0.007669   
    134. D(C   3,O  13,C   0,H   6)   -161.2494         0.009400   
    135. D(C   2,O  13,C   4,C   3)    -37.4169         0.006187   
    136. D(C   3,O  13,C   0,H   5)    -49.8590         0.002529   
    137. D(C   0,O  13,C   4,H  12)    124.3431         0.007764   
    138. D(H  14,O  13,C   1,H   7)    178.6095         0.003572   
    139. D(C   3,O  13,C   0,C   4)    -35.9341         0.009046   
    140. D(C   0,O  13,C   4,C   3)   -112.4852         0.006444   
    141. D(C   1,O  13,C   4,H  12)    160.1526         0.008069   
    142. D(C   4,O  13,C   1,H   7)   -161.4265         0.005764   
    143. D(C   3,O  13,C   0,C   1)     78.9588         0.010018   
    144. D(C   4,O  13,C   0,H   6)   -125.3153         0.008563   
    145. D(C   3,O  13,C   4,C   0)    112.4852         0.006444   
    146. D(C   3,O  13,C   1,H   7)    161.7306         0.005727   
    147. D(C   4,O  13,C   0,H   5)    -13.9249         0.002977   
    148. D(C   4,O  13,C   0,C   1)    114.8929         0.007669   
    149. D(H  14,O  13,C   4,C   0)   -165.6444         0.004968   
    150. D(C   2,O  13,C   3,C   4)    112.4886         0.006901   
    151. D(H  14,O  13,C   0,H   6)   -112.4601         0.007226   
    152. D(H  14,O  13,C   0,H   5)     -1.0696         0.000879   
    153. D(C   1,O  13,C   3,H  11)   -160.1454         0.008334   
    154. D(H  14,O  13,C   0,C   4)     12.8553         0.003950   
    155. D(C   1,O  13,C   3,C   2)    -35.7548         0.005406   
    156. D(H  14,O  13,C   0,C   1)    127.7482         0.005059   
    157. D(C   4,O  13,C   3,H  11)    123.1207         0.007519   
    158. D(C   4,O  13,C   3,C   2)   -112.4886         0.006901   
    159. D(H  14,O  13,C   3,H  11)     38.0952         0.006486   
    160. D(H  14,O  13,C   3,C   4)    -85.0255         0.003299   
    161. D(H  14,O  13,C   3,C   2)    162.4859         0.005435   
    162. D(C   1,O  13,C   2,C   3)    114.9995         0.007128   
    163. D(C   3,O  13,C   2,H  10)     12.5130         0.003051   
    164. D(C   3,O  13,C   2,H   9)    125.2356         0.007984   
    165. D(C   3,O  13,C   2,C   1)   -114.9995         0.007128   
    166. D(C   1,O  13,C   3,C   4)     76.7339         0.007619   
    167. D(C   4,O  13,C   2,H  10)     48.4647         0.002546   
    168. D(C   0,O  13,C   3,C   2)    -75.0435         0.008087   
    169. D(C   0,O  13,C   3,C   4)     37.4451         0.005887   
    170. D(C   0,O  13,C   3,H  11)    160.5658         0.008026   
    171. D(C   4,O  13,C   2,H   9)    161.1873         0.008984   
    172. D(C   4,O  13,C   2,C   3)     35.9517         0.009204   
    173. D(H  14,O  13,C   4,C   3)     81.8703         0.003259   
    174. D(H  14,O  13,C   4,H  12)    -41.3013         0.006304   
    175. D(C   4,O  13,C   2,C   1)    -79.0478         0.009453   
    176. D(C   3,O  13,C   4,H  12)   -123.1716         0.007810   
    177. D(C   1,O  13,C   4,C   0)     35.8095         0.005194   
    178. D(C   1,O  13,C   4,C   3)    -76.6757         0.007603   
    179. D(H  14,O  13,C   2,H  10)     -3.0568         0.001005   
    180. D(H  14,O  13,C   2,H   9)    109.6658         0.006735   
    181. D(H  14,O  13,C   2,C   3)    -15.5698         0.004278   
    182. D(C   2,O  13,C   4,C   0)     75.0684         0.008028   
    183. D(H  14,O  13,C   2,C   1)   -130.5692         0.004384   
    184. D(C   3,O  13,C   1,H   8)    161.4602         0.010445   
    -----------------------------------------------------------------

Number of atoms                         .... 15
Number of degrees of freedom            .... 184


         *************************************************************
         *                GEOMETRY OPTIMIZATION CYCLE   1            *
         *************************************************************
---------------------------------
CARTESIAN COORDINATES (ANGSTROEM)
---------------------------------
  C      1.217978    0.394381   -0.470597
  C     -0.009658    1.262383   -0.116106
  C     -1.241125    0.378796   -0.414294
  C     -0.670436   -1.017251   -0.379384
  C      0.667302   -1.008757   -0.409954
  H      1.590038    0.605696   -1.479852
  H      2.050532    0.552300    0.217679
  H     -0.028108    2.207654   -0.659258
  H      0.013440    1.487058    0.951228
  H     -2.043299    0.526561    0.311346
  H     -1.661688    0.585217   -1.405351
  H     -1.285071   -1.909994   -0.388225
  H      1.292232   -1.893554   -0.446278
  O      0.067467   -0.629419    2.508091
  H      0.040396   -1.541071    2.180954

----------------------------
CARTESIAN COORDINATES (A.U.)
----------------------------
  NO LB      ZA    FRAG     MASS         X           Y           Z
   0 C     6.0000    0    12.011    2.301645    0.745272   -0.889300
   1 C     6.0000    0    12.011   -0.018251    2.385558   -0.219408
   2 C     6.0000    0    12.011   -2.345387    0.715821   -0.782902
   3 C     6.0000    0    12.011   -1.266941   -1.922326   -0.716931
   4 C     6.0000    0    12.011    1.261019   -1.906274   -0.774700
   5 H     1.0000    0     1.008    3.004737    1.144600   -2.796514
   6 H     1.0000    0     1.008    3.874944    1.043696    0.411354
   7 H     1.0000    0     1.008   -0.053116    4.171862   -1.245817
   8 H     1.0000    0     1.008    0.025398    2.810133    1.797561
   9 H     1.0000    0     1.008   -3.861276    0.995055    0.588358
  10 H     1.0000    0     1.008   -3.140136    1.105900   -2.655729
  11 H     1.0000    0     1.008   -2.428431   -3.609365   -0.733638
  12 H     1.0000    0     1.008    2.441964   -3.578299   -0.843344
  13 O     8.0000    0    15.999    0.127494   -1.189430    4.739605
  14 H     1.0000    0     1.008    0.076337   -2.912203    4.121406

--------------------------------
INTERNAL COORDINATES (ANGSTROEM)
--------------------------------
 C      0   0   0     0.000000000000     0.00000000     0.00000000
 C      1   0   0     1.544727107383     0.00000000     0.00000000
 C      2   1   0     1.544718015633   105.53632485     0.00000000
 C      3   2   1     1.508592718888   102.90210123    21.27602929
 C      4   3   2     1.338115110559   111.82559484   346.32265307
 H      1   2   3     1.096210662749   111.88202418    96.63434091
 H      1   2   3     1.091699640224   112.34055120   217.11681556
 H      2   1   3     1.090363854192   112.72275494   236.56127079
 H      2   1   3     1.090969372330   108.86916694   116.73667671
 H      3   2   1     1.091728143829   112.33639356   142.89501466
 H      3   2   1     1.096210293108   111.87982803   263.35744336
 H      4   3   2     1.083901492563   123.19499376   169.69105002
 H      5   4   3     1.083846140698   124.89022455   183.38215422
 O      9   2   1     2.627968518910   114.46662030   302.82449660
 H     14   9   2     0.968948570442   123.85928793   358.07735112

---------------------------
INTERNAL COORDINATES (A.U.)
---------------------------
 C      0   0   0     0.000000000000     0.00000000     0.00000000
 C      1   0   0     2.919111184599     0.00000000     0.00000000
 C      2   1   0     2.919094003681   105.53632485     0.00000000
 C      3   2   1     2.850827086326   102.90210123    21.27602929
 C      4   3   2     2.528671094618   111.82559484   346.32265307
 H      1   2   3     2.071537937680   111.88202418    96.63434091
 H      1   2   3     2.063013340523   112.34055120   217.11681556
 H      2   1   3     2.060489070749   112.72275494   236.56127079
 H      2   1   3     2.061633334200   108.86916694   116.73667671
 H      3   2   1     2.063067204530   112.33639356   142.89501466
 H      3   2   1     2.071537239159   111.87982803   263.35744336
 H      4   3   2     2.048276977093   123.19499376   169.69105002
 H      5   4   3     2.048172377227   124.89022455   183.38215422
 O      9   2   1     4.966140789307   114.46662030   302.82449660
 H     14   9   2     1.831047435990   123.85928793   358.07735112

---------------------
BASIS SET INFORMATION
---------------------
There are 3 groups of distinct atoms

 Group   1 Type C   : 11s6p2d1f contracted to 5s3p2d1f pattern {62111/411/11/1}
 Group   2 Type H   : 5s2p1d contracted to 3s2p1d pattern {311/11/1}
 Group   3 Type O   : 11s6p2d1f contracted to 5s3p2d1f pattern {62111/411/11/1}

Atom   0C    basis set group =>   1
Atom   1C    basis set group =>   1
Atom   2C    basis set group =>   1
Atom   3C    basis set group =>   1
Atom   4C    basis set group =>   1
Atom   5H    basis set group =>   2
Atom   6H    basis set group =>   2
Atom   7H    basis set group =>   2
Atom   8H    basis set group =>   2
Atom   9H    basis set group =>   2
Atom  10H    basis set group =>   2
Atom  11H    basis set group =>   2
Atom  12H    basis set group =>   2
Atom  13O    basis set group =>   3
Atom  14H    basis set group =>   2
---------------------------------
AUXILIARY/J BASIS SET INFORMATION
---------------------------------
There are 3 groups of distinct atoms

 Group   1 Type C   : 12s5p4d2f1g contracted to 6s4p3d1f1g pattern {711111/2111/211/2/1}
 Group   2 Type H   : 5s2p1d contracted to 3s1p1d pattern {311/2/1}
 Group   3 Type O   : 12s5p4d2f1g contracted to 6s4p3d1f1g pattern {711111/2111/211/2/1}

Atom   0C    basis set group =>   1
Atom   1C    basis set group =>   1
Atom   2C    basis set group =>   1
Atom   3C    basis set group =>   1
Atom   4C    basis set group =>   1
Atom   5H    basis set group =>   2
Atom   6H    basis set group =>   2
Atom   7H    basis set group =>   2
Atom   8H    basis set group =>   2
Atom   9H    basis set group =>   2
Atom  10H    basis set group =>   2
Atom  11H    basis set group =>   2
Atom  12H    basis set group =>   2
Atom  13O    basis set group =>   3
Atom  14H    basis set group =>   2
---------------------------------
AUXILIARY/C BASIS SET INFORMATION
---------------------------------
There are 3 groups of distinct atoms

 Group   1 Type C   : 8s6p5d3f1g contracted to 8s6p4d3f1g pattern {11111111/111111/2111/111/1}
 Group   2 Type H   : 4s3p2d1f contracted to 4s3p2d1f pattern {1111/111/11/1}
 Group   3 Type O   : 8s6p5d3f1g contracted to 8s6p4d3f1g pattern {11111111/111111/2111/111/1}

Atom   0C    basis set group =>   1
Atom   1C    basis set group =>   1
Atom   2C    basis set group =>   1
Atom   3C    basis set group =>   1
Atom   4C    basis set group =>   1
Atom   5H    basis set group =>   2
Atom   6H    basis set group =>   2
Atom   7H    basis set group =>   2
Atom   8H    basis set group =>   2
Atom   9H    basis set group =>   2
Atom  10H    basis set group =>   2
Atom  11H    basis set group =>   2
Atom  12H    basis set group =>   2
Atom  13O    basis set group =>   3
Atom  14H    basis set group =>   2


           ************************************************************
           *        Program running with 8 parallel MPI-processes     *
           *              working on a common directory               *
           ************************************************************
------------------------------------------------------------------------------
                             ORCA STARTUP CALCULATIONS
                           -- RI-GTO INTEGRALS CHOSEN --
------------------------------------------------------------------------------
------------------------------------------------------------------------------
                   ___                                                        
                  /   \      - P O W E R E D   B Y -                         
                 /     \                                                     
                 |  |  |   _    _      __       _____    __    __             
                 |  |  |  | |  | |    /  \     |  _  \  |  |  /  |          
                  \  \/   | |  | |   /    \    | | | |  |  | /  /          
                 / \  \   | |__| |  /  /\  \   | |_| |  |  |/  /          
                |  |  |   |  __  | /  /__\  \  |    /   |      \           
                |  |  |   | |  | | |   __   |  |    \   |  |\   \          
                \     /   | |  | | |  |  |  |  | |\  \  |  | \   \       
                 \___/    |_|  |_| |__|  |__|  |_| \__\ |__|  \__/        
                                                                              
                      - O R C A' S   B I G   F R I E N D -                    
                                      &                                       
                       - I N T E G R A L  F E E D E R -                       
                                                                              
 v1 FN, 2020, v2 2021, v3 2022-2024                                           
------------------------------------------------------------------------------


----------------------
SHARK INTEGRAL PACKAGE
----------------------

Number of atoms                             ...     15
Number of basis functions                   ...    312
Number of shells                            ...    120
Maximum angular momentum                    ...      3
Integral batch strategy                     ... SHARK/LIBINT Hybrid
RI-J (if used) integral strategy            ... SPLIT-RIJ (Revised 2003 algorithm where possible)
Printlevel                                  ...      1
Contraction scheme used                     ... SEGMENTED contraction
Prescreening option                         ... SCHWARTZ
   Thresh                                   ... 1.000e-12
   Tcut                                     ... 1.000e-14
   Tpresel                                  ... 1.000e-14 
Coulomb Range Separation                    ... NOT USED
Exchange Range Separation                   ... NOT USED
Multipole approximations                    ... NOT USED
Finite Nucleus Model                        ... NOT USED
CABS basis                                  ... NOT available
Auxiliary Coulomb fitting basis             ... AVAILABLE
   # of basis functions in Aux-J            ...    393
   # of shells in Aux-J                     ...    135
   Maximum angular momentum in Aux-J        ...      4
Auxiliary J/K fitting basis                 ... NOT available
Auxiliary Correlation fitting basis         ... AVAILABLE
   # of basis functions in Aux-C            ...    726
   # of shells in Aux-C                     ...    222
   Maximum angular momentum in Aux-C        ...      4
Auxiliary 'external' fitting basis          ... NOT available

Checking pre-screening integrals            ... done (  0.0 sec) Dimension = 120
   => SHARK Basis and OBASIS are compatible. Storing Pre-screening
Shell pair information
Shell pair cut-off parameter TPreSel        ...   1.0e-14
Total number of shell pairs                 ...      7260
Shell pairs after pre-screening             ...      6962
Total number of primitive shell pairs       ...     18687
Primitive shell pairs kept                  ...     14598
          la=0 lb=0:   1549 shell pairs
          la=1 lb=0:   1965 shell pairs
          la=1 lb=1:    649 shell pairs
          la=2 lb=0:   1142 shell pairs
          la=2 lb=1:    740 shell pairs
          la=2 lb=2:    227 shell pairs
          la=3 lb=0:    332 shell pairs
          la=3 lb=1:    213 shell pairs
          la=3 lb=2:    124 shell pairs
          la=3 lb=3:     21 shell pairs

Checking whether 4 symmetric matrices of dimension 312 fit in memory
:Max Core in MB      =   6000.00
 MB in use           =     12.02
 MB left             =   5987.98
 MB needed           =      1.49
 Data fit in memory  = YES
Calculating RI/J V-Matrix + Cholesky decomp.... done (  0.0 sec)
Calculating RI/C V-Matrix + Cholesky decomp.... done (  0.0 sec)
Calculating Nuclear repulsion               ... done (  0.0 sec) ENN=    231.545148774499 Eh

Diagonalization of the overlap matrix:
Smallest eigenvalue                        ... 8.132e-05
Time for diagonalization                   ...    0.012 sec
Threshold for overlap eigenvalues          ... 1.000e-07
Number of eigenvalues below threshold      ... 0
Time for construction of square roots      ...    0.004 sec
Total time needed                          ...    0.017 sec

-------------------
DFT GRID GENERATION
-------------------

General Integration Accuracy     IntAcc      ... 4.959
Radial Grid Type                 RadialGrid  ... OptM3 with GC (2021)
Angular Grid (max. ang.)         AngularGrid ... 6 (Lebedev-590)
Angular grid pruning method      GridPruning ... 4 (adaptive)
Weight generation scheme         WeightScheme... mBecke (2022)
Basis function cutoff            BFCut       ... 1.0000e-12
Integration weight cutoff        WCut        ... 1.0000e-14
Partially contracted basis set               ... off
Rotationally invariant grid construction     ... off
Angular grids for H and He will be reduced by one unit

Total number of grid points                  ...   164259
Total number of batches                      ...     2574
Average number of points per batch           ...       63
Average number of grid points per atom       ...    10951

--------------------
COSX GRID GENERATION
--------------------

GRIDX 1
-------
General Integration Accuracy     IntAcc      ... 4.020
Radial Grid Type                 RadialGrid  ... OptM3 with GC (2021)
Angular Grid (max. ang.)         AngularGrid ... 2 (Lebedev-110)
Angular grid pruning method      GridPruning ... 4 (adaptive)
Weight generation scheme         WeightScheme... mBecke (2022)
Basis function cutoff            BFCut       ... 1.0000e-12
Integration weight cutoff        WCut        ... 1.0000e-14
Partially contracted basis set               ... on
Rotationally invariant grid construction     ... off
Angular grids for H and He will be reduced by one unit

Total number of grid points                  ...    17684
Total number of batches                      ...      147
Average number of points per batch           ...      120
Average number of grid points per atom       ...     1179
UseSFitting                                  ... on

GRIDX 2
-------
General Integration Accuracy     IntAcc      ... 4.338
Radial Grid Type                 RadialGrid  ... OptM3 with GC (2021)
Angular Grid (max. ang.)         AngularGrid ... 3 (Lebedev-194)
Angular grid pruning method      GridPruning ... 4 (adaptive)
Weight generation scheme         WeightScheme... mBecke (2022)
Basis function cutoff            BFCut       ... 1.0000e-12
Integration weight cutoff        WCut        ... 1.0000e-14
Partially contracted basis set               ... on
Rotationally invariant grid construction     ... off
Angular grids for H and He will be reduced by one unit

Total number of grid points                  ...    38666
Total number of batches                      ...      310
Average number of points per batch           ...      124
Average number of grid points per atom       ...     2578
UseSFitting                                  ... on

GRIDX 3
-------
General Integration Accuracy     IntAcc      ... 4.871
Radial Grid Type                 RadialGrid  ... OptM3 with GC (2021)
Angular Grid (max. ang.)         AngularGrid ... 4 (Lebedev-302)
Angular grid pruning method      GridPruning ... 4 (adaptive)
Weight generation scheme         WeightScheme... mBecke (2022)
Basis function cutoff            BFCut       ... 1.0000e-12
Integration weight cutoff        WCut        ... 1.0000e-14
Partially contracted basis set               ... on
Rotationally invariant grid construction     ... off
Angular grids for H and He will be reduced by one unit

Total number of grid points                  ...    75741
Total number of batches                      ...      601
Average number of points per batch           ...      126
Average number of grid points per atom       ...     5049
UseSFitting                                  ... on
Grids setup in   1.7 sec
Initializing property integral containers    ... done (  0.0 sec)

SHARK setup successfully completed in   1.9 seconds

Maximum memory used throughout the entire STARTUP-calculation: 42.5 MB


           ************************************************************
           *        Program running with 8 parallel MPI-processes     *
           *              working on a common directory               *
           ************************************************************
-------------------------------------------------------------------------------
                                 ORCA GUESS
                   Start orbitals & Density for SCF / CASSCF
-------------------------------------------------------------------------------

------------
SCF SETTINGS
------------
Hamiltonian:
 Density Functional     Method          .... DFT(GTOs)
 Exchange Functional    Exchange        .... PBE
   PBE kappa parameter   XKappa         ....  0.804000
   PBE mue parameter    XMuePBE         ....  0.219520
 Correlation Functional Correlation     .... P86
 LDA part of GGA corr.  LDAOpt          .... VWN-5
 Gradients option       PostSCFGGA      .... off
 Hybrid DFT is turned on
   Fraction HF Exchange ScalHFX         ....  0.690000
   Scaling of DF-GGA-X  ScalDFX         ....  0.310000
   Scaling of DF-GGA-C  ScalDFC         ....  0.422400
   Scaling of DF-LDA-C  ScalLDAC        ....  0.422400
   Perturbative correction              ....  1.000000
 RI-approximation to the Coulomb term is turned on
   Number of AuxJ basis functions       .... 393
   RIJ-COSX (HFX calculated with COS-X)).... on


General Settings:
 Integral files         IntName         .... opt
 Hartree-Fock type      HFTyp           .... UHF
 Total Charge           Charge          ....    0
 Multiplicity           Mult            ....    2
 Number of Electrons    NEL             ....   47
 Basis Dimension        Dim             ....  312
 Nuclear Repulsion      ENuc            ....    231.5451487745 Eh

Convergence Acceleration:
 AO-DIIS                CNVDIIS         .... on
   Start iteration      DIISMaxIt       ....    12
   Startup error        DIISStart       ....  0.200000
   # of expansion vecs  DIISMaxEq       ....     5
   Bias factor          DIISBfac        ....   1.050
   Max. coefficient     DIISMaxC        ....  10.000
 MO-DIIS                CNVKDIIS        .... off
 Trust-Rad. Augm. Hess. CNVTRAH         .... auto
   Auto Start mean grad. ratio tolernc. ....  1.125000
   Auto Start start iteration           ....    50
   Auto Start num. interpolation iter.  ....    10
   Max. Number of Micro iterations      ....    24
   Max. Number of Macro iterations      .... Maxiter - #DIIS iter
   Number of Davidson start vectors     ....     2
   Converg. threshold    (grad. norm)   ....   2.000e-06
   Grad. Scal. Fac. for Micro threshold ....   0.100
   Minimum threshold for Micro iter.    ....   1.000e-02
   NR start threshold (gradient norm)   ....   1.000e-04
   Initial trust radius                 ....   0.400
   Minimum AH scaling param. (alpha)    ....   1.000
   Maximum AH scaling param. (alpha)    .... 1000.000
   Quad. conv. algorithm                .... NR
   White noise on init. David. guess    .... on
   Maximum white noise                  ....   0.010
   Pseudo random numbers                .... off
   Inactive MOs                         .... canonical
   Orbital update algorithm             .... Taylor
   Preconditioner                       .... Diag
   Full preconditioner red. dimension   ....   250
 SOSCF                 CNVSOSCF           .... on
   Start iteration     SOSCFMaxIt         ....   150
   Startup grad/error  SOSCFStart         ....  0.003300
   Hessian update      SOSCFHessUp        .... L-BFGS
   Autom. constraints  SOSCFAutoConstrain .... off
 Level Shifting         CNVShift        .... on
   Level shift para.    LevelShift      ....    0.2500
   Turn off err/grad.   ShiftErr        ....    0.0010
 Zerner damping         CNVZerner       .... off
 Static damping         CNVDamp         .... on
   Fraction old density DampFac         ....    0.7000
   Max. Damping (<1)    DampMax         ....    0.9800
   Min. Damping (>=0)   DampMin         ....    0.0000
   Turn off err/grad.   DampErr         ....    0.1000

SCF Procedure:
 Maximum # iterations   MaxIter         ....   125
 SCF integral mode      SCFMode         .... Direct
   Integral package                     .... SHARK and LIBINT hybrid scheme
 Reset frequency        DirectResetFreq ....    20
 Integral Threshold     Thresh          ....  1.000e-12 Eh
 Primitive CutOff       TCut            ....  1.000e-14 Eh

Convergence Tolerance:
 Convergence Check Mode ConvCheckMode   .... Total+1el-Energy
 Convergence forced     ConvForced      .... 0
 Energy Change          TolE            ....  1.000e-09 Eh
 1-El. energy change                    ....  1.000e-06 Eh
 Orbital Gradient       TolG            ....  2.000e-06
 Orbital Rotation angle TolX            ....  2.000e-06
 DIIS Error             TolErr          ....  1.000e-08

------------------------------
INITIAL GUESS: MODEL POTENTIAL
------------------------------
Loading Hartree-Fock densities                     ... done
Calculating cut-offs                               ... done
Initializing the effective Hamiltonian             ... done
Setting up the integral package (SHARK)            ... done
Starting the Coulomb interaction                   ... done (   0.0 sec)
Making the grid                                    ... done (   0.1 sec)
Mapping shells                                     ... done
Starting the XC term evaluation                    ... done (   0.0 sec)
  promolecular density results
     # of electrons  =     46.992532121
     EX              =    -36.291830125
     EC              =      0.026669420
     EX+EC           =    -36.265160705
Transforming the Hamiltonian                       ... done (   0.0 sec)
Diagonalizing the Hamiltonian                      ... done (   0.0 sec)
Back transforming the eigenvectors                 ... done (   0.0 sec)
Now organizing SCF variables                       ... done
                      ------------------
                      INITIAL GUESS DONE (   0.2 sec)
                      ------------------
             **** ENERGY FILE WAS UPDATED (opt.en.tmp) ****
Finished Guess after   1.7 sec
Maximum memory used throughout the entire GUESS-calculation: 18.0 MB


           ************************************************************
           *        Program running with 8 parallel MPI-processes     *
           *              working on a common directory               *
           ************************************************************

-------------------------------------------------------------------------------------------
                                      ORCA LEAN-SCF
                              memory conserving SCF solver
-------------------------------------------------------------------------------------------

----------------------------------------D-I-I-S--------------------------------------------
Iteration    Energy (Eh)           Delta-E    RMSDP     MaxDP     DIISErr   Damp  Time(sec)
-------------------------------------------------------------------------------------------
               ***  Starting incremental Fock matrix formation  ***
    1    -269.7506762816293531     0.00e+00  2.35e-03  3.92e-02  1.99e-01  0.700   2.9
    2    -269.8754241039177941    -1.25e-01  1.68e-03  3.15e-02  1.03e-01  0.700   1.7
                               ***Turning on AO-DIIS***
    3    -269.9338224163988684    -5.84e-02  7.43e-04  1.99e-02  5.10e-02  0.700   1.6
    4    -269.9721355318000633    -3.83e-02  2.15e-03  5.65e-02  3.90e-02  0.000   1.6
    5    -270.0798389944199016    -1.08e-01  1.14e-03  1.45e-02  2.91e-02  0.000   1.6
    6    -270.0927769165212453    -1.29e-02  1.30e-03  2.16e-02  2.50e-02  0.000   1.6
    7    -270.1036579514307050    -1.09e-02  4.92e-04  5.88e-03  2.07e-02  0.000   1.6
    8    -270.1076988363680584    -4.04e-03  6.77e-04  1.10e-02  1.25e-02  0.000   1.6
    9    -270.1101235110548373    -2.42e-03  2.96e-04  4.75e-03  7.39e-03  0.000   1.6
   10    -270.1107955629543653    -6.72e-04  1.93e-04  2.39e-03  3.75e-03  0.000   1.5
                              *** Initializing SOSCF ***
---------------------------------------S-O-S-C-F--------------------------------------
Iteration    Energy (Eh)           Delta-E    RMSDP     MaxDP     MaxGrad    Time(sec)
--------------------------------------------------------------------------------------
   11    -270.1110153679218797    -2.20e-04  8.27e-05  1.20e-03  1.79e-03     1.5
               *** Restarting incremental Fock matrix formation ***
   12    -270.1110584382438446    -4.31e-05  5.03e-05  1.01e-03  1.59e-03     2.8
   13    -270.1110736715793905    -1.52e-05  4.22e-05  5.87e-04  8.10e-04     2.4
   14    -270.1110805030670576    -6.83e-06  2.24e-05  3.95e-04  3.87e-04     2.4
   15    -270.1110819743892080    -1.47e-06  1.89e-05  3.75e-04  2.49e-04     2.3
   16    -270.1110827516552604    -7.77e-07  6.55e-06  9.54e-05  5.88e-05     2.2
   17    -270.1110828096951764    -5.80e-08  4.76e-06  6.68e-05  2.25e-05     2.2
   18    -270.1110828238579415    -1.42e-08  8.38e-07  9.52e-06  7.60e-06     2.1
   19    -270.1110828251855764    -1.33e-09  2.72e-07  3.52e-06  2.43e-06     2.0
   20    -270.1110828253096088    -1.24e-10  1.70e-07  3.29e-06  1.74e-06     1.9
                 **** Energy Check signals convergence ****

               *****************************************************
               *                     SUCCESS                       *
               *           SCF CONVERGED AFTER  20 CYCLES          *
               *****************************************************

Recomputing exchange energy using gridx3       ... done (    3.917 sec)
Old exchange energy                            :    -25.787635877 Eh
New exchange energy                            :    -25.787632642 Eh
Exchange energy change after final integration :      0.000003235 Eh
Total energy after final integration           :   -270.111079590 Eh
             **** ENERGY FILE WAS UPDATED (opt.en.tmp) ****

----------------
TOTAL SCF ENERGY
----------------

Total Energy       :       -270.11107959022974 Eh           -7350.09615 eV

Components:
Nuclear Repulsion  :        231.54514877449918 Eh            6300.66382 eV
Electronic Energy  :       -501.65623160001161 Eh          -13650.76005 eV
One Electron Energy:       -824.81220818510019 Eh          -22444.28123 eV
Two Electron Energy:        323.15597658508858 Eh            8793.52118 eV

Virial components:
Potential Energy   :       -539.52139800401733 Eh          -14681.12361 eV
Kinetic Energy     :        269.41031841378754 Eh            7331.02747 eV
Virial Ratio       :          2.00260109256605

DFT components:
N(Alpha)           :       23.999999592220 electrons
N(Beta)            :       22.999999602485 electrons
N(Total)           :       46.999999194705 electrons
E(X)               :      -11.522665280913 Eh       
E(C)               :       -0.707814206505 Eh       
E(XC)              :      -12.230479487418 Eh       

---------------
SCF CONVERGENCE
---------------

  Last Energy change         ...    1.2403e-10  Tolerance :   1.0000e-09
  Last MAX-Density change    ...    3.2935e-06  Tolerance :   1.0000e-08
  Last RMS-Density change    ...    1.7035e-07  Tolerance :   1.0000e-09
  Last DIIS Error            ...    1.7922e-03  Tolerance :   1.0000e-08
  Last Orbital Gradient      ...    1.7437e-06  Tolerance :   2.0000e-06
  Last Orbital Rotation      ...    4.3336e-06  Tolerance :   2.0000e-06


----------------------
UHF SPIN CONTAMINATION
----------------------

Warning: in a DFT calculation there is little theoretical justification to 
         calculate <S**2> as in Hartree-Fock theory. We will do it anyways
         but you should keep in mind that the values have only limited relevance

Expectation value of <S**2>     :     0.755312
Ideal value S*(S+1) for S=0.5   :     0.750000
Deviation                       :     0.005312

----------------
ORBITAL ENERGIES
----------------
                 SPIN UP ORBITALS
  NO   OCC          E(Eh)            E(eV) 
   0   1.0000     -20.061733      -545.9075 
   1   1.0000     -10.815035      -294.2921 
   2   1.0000     -10.813655      -294.2545 
   3   1.0000     -10.808334      -294.1097 
   4   1.0000     -10.808278      -294.1082 
   5   1.0000     -10.802735      -293.9574 
   6   1.0000      -1.233745       -33.5719 
   7   1.0000      -1.024122       -27.8678 
   8   1.0000      -0.869535       -23.6612 
   9   1.0000      -0.863162       -23.4878 
  10   1.0000      -0.706345       -19.2206 
  11   1.0000      -0.654678       -17.8147 
  12   1.0000      -0.611290       -16.6340 
  13   1.0000      -0.593661       -16.1543 
  14   1.0000      -0.580144       -15.7865 
  15   1.0000      -0.546355       -14.8671 
  16   1.0000      -0.495934       -13.4950 
  17   1.0000      -0.477690       -12.9986 
  18   1.0000      -0.463748       -12.6192 
  19   1.0000      -0.439360       -11.9556 
  20   1.0000      -0.436238       -11.8707 
  21   1.0000      -0.430114       -11.7040 
  22   1.0000      -0.423941       -11.5360 
  23   1.0000      -0.310129        -8.4391 
  24   0.0000       0.093090         2.5331 
  25   0.0000       0.096822         2.6347 
  26   0.0000       0.121934         3.3180 
  27   0.0000       0.140998         3.8368 
  28   0.0000       0.147326         4.0089 
  29   0.0000       0.161932         4.4064 
  30   0.0000       0.166209         4.5228 
  31   0.0000       0.169414         4.6100 
  32   0.0000       0.191481         5.2105 
  33   0.0000       0.212622         5.7857 
  34   0.0000       0.247504         6.7349 

                 SPIN DOWN ORBITALS
  NO   OCC          E(Eh)            E(eV) 
   0   1.0000     -20.027375      -544.9726 
   1   1.0000     -10.814687      -294.2826 
   2   1.0000     -10.813314      -294.2452 
   3   1.0000     -10.808361      -294.1104 
   4   1.0000     -10.808302      -294.1088 
   5   1.0000     -10.802663      -293.9554 
   6   1.0000      -1.111125       -30.2352 
   7   1.0000      -1.023168       -27.8418 
   8   1.0000      -0.868624       -23.6364 
   9   1.0000      -0.863024       -23.4841 
  10   1.0000      -0.705914       -19.2089 
  11   1.0000      -0.654260       -17.8033 
  12   1.0000      -0.610953       -16.6249 
  13   1.0000      -0.573740       -15.6123 
  14   1.0000      -0.556023       -15.1302 
  15   1.0000      -0.495286       -13.4774 
  16   1.0000      -0.477365       -12.9898 
  17   1.0000      -0.439250       -11.9526 
  18   1.0000      -0.435839       -11.8598 
  19   1.0000      -0.429131       -11.6772 
  20   1.0000      -0.426315       -11.6006 
  21   1.0000      -0.423810       -11.5324 
  22   1.0000      -0.310981        -8.4622 
  23   0.0000       0.009230         0.2512 
  24   0.0000       0.096133         2.6159 
  25   0.0000       0.098658         2.6846 
  26   0.0000       0.125491         3.4148 
  27   0.0000       0.141151         3.8409 
  28   0.0000       0.148334         4.0364 
  29   0.0000       0.162785         4.4296 
  30   0.0000       0.168319         4.5802 
  31   0.0000       0.169530         4.6131 
  32   0.0000       0.191615         5.2141 
  33   0.0000       0.215490         5.8638 
*Only the first 10 virtual orbitals were printed.

                    ********************************
                    * MULLIKEN POPULATION ANALYSIS *
                    ********************************

--------------------------------------------
MULLIKEN ATOMIC CHARGES AND SPIN POPULATIONS
--------------------------------------------
   0 C :   -0.055854   -0.003150
   1 C :   -0.165558    0.009873
   2 C :   -0.055243   -0.003611
   3 C :   -0.204649    0.012117
   4 C :   -0.199440    0.009909
   5 H :    0.069592   -0.000355
   6 H :    0.075400    0.000672
   7 H :    0.077457   -0.000152
   8 H :    0.086947   -0.004168
   9 H :    0.075004    0.000747
  10 H :    0.069587   -0.000234
  11 H :    0.114604   -0.001105
  12 H :    0.113694   -0.000923
  13 O :   -0.247134    1.010089
  14 H :    0.245593   -0.029710
Sum of atomic charges         :   -0.0000000
Sum of atomic spin populations:    1.0000000

-----------------------------------------------------
MULLIKEN REDUCED ORBITAL CHARGES AND SPIN POPULATIONS
-----------------------------------------------------
CHARGE
  0 C s       :     3.074101  s :     3.074101
      pz      :     1.016493  p :     2.863628
      px      :     0.972081
      py      :     0.875054
      dz2     :     0.018668  d :     0.112047
      dxz     :     0.030258
      dyz     :     0.016826
      dx2y2   :     0.025136
      dxy     :     0.021159
      f0      :     0.000739  f :     0.006078
      f+1     :     0.000766
      f-1     :     0.000554
      f+2     :     0.000483
      f-2     :     0.000799
      f+3     :     0.001433
      f-3     :     0.001304

  1 C s       :     3.145833  s :     3.145833
      pz      :     1.057705  p :     2.912743
      px      :     0.874534
      py      :     0.980503
      dz2     :     0.022523  d :     0.100907
      dxz     :     0.015151
      dyz     :     0.017585
      dx2y2   :     0.025730
      dxy     :     0.019917
      f0      :     0.000915  f :     0.006074
      f+1     :     0.000560
      f-1     :     0.000454
      f+2     :     0.000575
      f-2     :     0.000783
      f+3     :     0.001365
      f-3     :     0.001422

  2 C s       :     3.073665  s :     3.073665
      pz      :     1.019004  p :     2.863367
      px      :     0.969342
      py      :     0.875021
      dz2     :     0.017384  d :     0.112130
      dxz     :     0.032234
      dyz     :     0.016536
      dx2y2   :     0.024665
      dxy     :     0.021310
      f0      :     0.000704  f :     0.006081
      f+1     :     0.000827
      f-1     :     0.000534
      f+2     :     0.000442
      f-2     :     0.000814
      f+3     :     0.001437
      f-3     :     0.001322

  3 C s       :     3.194499  s :     3.194499
      pz      :     0.965455  p :     2.891363
      px      :     0.951773
      py      :     0.974135
      dz2     :     0.004111  d :     0.110993
      dxz     :     0.023962
      dyz     :     0.007995
      dx2y2   :     0.030297
      dxy     :     0.044627
      f0      :     0.001222  f :     0.007793
      f+1     :     0.000579
      f-1     :     0.000847
      f+2     :     0.001033
      f-2     :     0.000301
      f+3     :     0.001448
      f-3     :     0.002362

  4 C s       :     3.193436  s :     3.193436
      pz      :     0.962738  p :     2.887269
      px      :     0.952472
      py      :     0.972059
      dz2     :     0.004450  d :     0.110940
      dxz     :     0.023500
      dyz     :     0.008201
      dx2y2   :     0.030315
      dxy     :     0.044474
      f0      :     0.001220  f :     0.007794
      f+1     :     0.000581
      f-1     :     0.000850
      f+2     :     0.001057
      f-2     :     0.000276
      f+3     :     0.001454
      f-3     :     0.002355

  5 H s       :     0.889520  s :     0.889520
      pz      :     0.018662  p :     0.038814
      px      :     0.011155
      py      :     0.008997
      dz2     :     0.000591  d :     0.002074
      dxz     :     0.000637
      dyz     :     0.000593
      dx2y2   :     0.000120
      dxy     :     0.000134

  6 H s       :     0.882874  s :     0.882874
      pz      :     0.013159  p :     0.039637
      px      :     0.017146
      py      :     0.009332
      dz2     :     0.000563  d :     0.002089
      dxz     :     0.000411
      dyz     :     0.000268
      dx2y2   :     0.000348
      dxy     :     0.000499

  7 H s       :     0.881582  s :     0.881582
      pz      :     0.011394  p :     0.038892
      px      :     0.009460
      py      :     0.018037
      dz2     :     0.000460  d :     0.002070
      dxz     :     0.000151
      dyz     :     0.000449
      dx2y2   :     0.000336
      dxy     :     0.000673

  8 H s       :     0.871717  s :     0.871717
      pz      :     0.020597  p :     0.039218
      px      :     0.008671
      py      :     0.009950
      dz2     :     0.000545  d :     0.002119
      dxz     :     0.000724
      dyz     :     0.000746
      dx2y2   :     0.000039
      dxy     :     0.000064

  9 H s       :     0.883273  s :     0.883273
      pz      :     0.013679  p :     0.039634
      px      :     0.016662
      py      :     0.009293
      dz2     :     0.000584  d :     0.002089
      dxz     :     0.000408
      dyz     :     0.000300
      dx2y2   :     0.000326
      dxy     :     0.000471

 10 H s       :     0.889523  s :     0.889523
      pz      :     0.018241  p :     0.038816
      px      :     0.011607
      py      :     0.008968
      dz2     :     0.000601  d :     0.002075
      dxz     :     0.000605
      dyz     :     0.000570
      dx2y2   :     0.000139
      dxy     :     0.000160

 11 H s       :     0.847156  s :     0.847156
      pz      :     0.010160  p :     0.036331
      px      :     0.010141
      py      :     0.016030
      dz2     :     0.000126  d :     0.001910
      dxz     :     0.000264
      dyz     :     0.000310
      dx2y2   :     0.000777
      dxy     :     0.000433

 12 H s       :     0.847986  s :     0.847986
      pz      :     0.010141  p :     0.036407
      px      :     0.010278
      py      :     0.015989
      dz2     :     0.000128  d :     0.001913
      dxz     :     0.000270
      dyz     :     0.000302
      dx2y2   :     0.000785
      dxy     :     0.000428

 13 O s       :     3.896738  s :     3.896738
      pz      :     1.033458  p :     4.338634
      px      :     1.951187
      py      :     1.353989
      dz2     :     0.002097  d :     0.011358
      dxz     :     0.000156
      dyz     :     0.003149
      dx2y2   :     0.004812
      dxy     :     0.001144
      f0      :     0.000020  f :     0.000404
      f+1     :     0.000033
      f-1     :    -0.000004
      f+2     :     0.000089
      f-2     :     0.000009
      f+3     :     0.000066
      f-3     :     0.000191

 14 H s       :     0.669744  s :     0.669744
      pz      :     0.017221  p :     0.076724
      px      :     0.034860
      py      :     0.024643
      dz2     :     0.000788  d :     0.007939
      dxz     :     0.000428
      dyz     :     0.001775
      dx2y2   :     0.002045
      dxy     :     0.002903


SPIN
  0 C s       :    -0.001664  s :    -0.001664
      pz      :    -0.000109  p :    -0.001131
      px      :    -0.000528
      py      :    -0.000494
      dz2     :    -0.000135  d :    -0.000377
      dxz     :    -0.000200
      dyz     :    -0.000046
      dx2y2   :    -0.000009
      dxy     :     0.000013
      f0      :     0.000013  f :     0.000022
      f+1     :     0.000001
      f-1     :     0.000001
      f+2     :     0.000002
      f-2     :     0.000003
      f+3     :     0.000000
      f-3     :     0.000002

  1 C s       :     0.004785  s :     0.004785
      pz      :     0.003074  p :     0.005107
      px      :     0.000046
      py      :     0.001987
      dz2     :    -0.000053  d :    -0.000017
      dxz     :    -0.000017
      dyz     :     0.000040
      dx2y2   :     0.000012
      dxy     :    -0.000000
      f0      :     0.000001  f :    -0.000001
      f+1     :    -0.000002
      f-1     :     0.000004
      f+2     :    -0.000002
      f-2     :    -0.000000
      f+3     :    -0.000000
      f-3     :    -0.000002

  2 C s       :    -0.001794  s :    -0.001794
      pz      :    -0.000305  p :    -0.001521
      px      :    -0.000630
      py      :    -0.000586
      dz2     :    -0.000116  d :    -0.000320
      dxz     :    -0.000201
      dyz     :    -0.000011
      dx2y2   :    -0.000003
      dxy     :     0.000011
      f0      :     0.000013  f :     0.000024
      f+1     :     0.000001
      f-1     :     0.000001
      f+2     :     0.000003
      f-2     :     0.000003
      f+3     :     0.000001
      f-3     :     0.000002

  3 C s       :     0.002562  s :     0.002562
      pz      :     0.007576  p :     0.009198
      px      :     0.000271
      py      :     0.001351
      dz2     :     0.000011  d :     0.000329
      dxz     :     0.000217
      dyz     :     0.000036
      dx2y2   :     0.000048
      dxy     :     0.000018
      f0      :     0.000023  f :     0.000028
      f+1     :    -0.000010
      f-1     :    -0.000011
      f+2     :     0.000018
      f-2     :    -0.000001
      f+3     :     0.000007
      f-3     :     0.000002

  4 C s       :     0.002364  s :     0.002364
      pz      :     0.005980  p :     0.007152
      px      :     0.000013
      py      :     0.001159
      dz2     :    -0.000078  d :     0.000358
      dxz     :     0.000333
      dyz     :     0.000038
      dx2y2   :     0.000058
      dxy     :     0.000008
      f0      :     0.000027  f :     0.000034
      f+1     :    -0.000012
      f-1     :    -0.000011
      f+2     :     0.000022
      f-2     :    -0.000000
      f+3     :     0.000005
      f-3     :     0.000002

  5 H s       :    -0.000363  s :    -0.000363
      pz      :     0.000003  p :     0.000008
      px      :    -0.000000
      py      :     0.000005
      dz2     :     0.000001  d :    -0.000000
      dxz     :    -0.000001
      dyz     :    -0.000000
      dx2y2   :    -0.000000
      dxy     :    -0.000000

  6 H s       :     0.000660  s :     0.000660
      pz      :    -0.000004  p :     0.000011
      px      :     0.000021
      py      :    -0.000006
      dz2     :     0.000000  d :     0.000002
      dxz     :    -0.000000
      dyz     :     0.000000
      dx2y2   :     0.000002
      dxy     :     0.000000

  7 H s       :    -0.000218  s :    -0.000218
      pz      :     0.000039  p :     0.000063
      px      :    -0.000000
      py      :     0.000024
      dz2     :     0.000002  d :     0.000003
      dxz     :    -0.000000
      dyz     :     0.000000
      dx2y2   :     0.000000
      dxy     :     0.000000

  8 H s       :    -0.004094  s :    -0.004094
      pz      :    -0.000047  p :    -0.000077
      px      :    -0.000009
      py      :    -0.000020
      dz2     :     0.000004  d :     0.000004
      dxz     :     0.000001
      dyz     :     0.000000
      dx2y2   :    -0.000001
      dxy     :    -0.000001

  9 H s       :     0.000733  s :     0.000733
      pz      :    -0.000005  p :     0.000012
      px      :     0.000022
      py      :    -0.000005
      dz2     :     0.000000  d :     0.000002
      dxz     :    -0.000000
      dyz     :     0.000000
      dx2y2   :     0.000002
      dxy     :     0.000000

 10 H s       :    -0.000244  s :    -0.000244
      pz      :     0.000005  p :     0.000010
      px      :     0.000001
      py      :     0.000005
      dz2     :     0.000001  d :    -0.000000
      dxz     :    -0.000000
      dyz     :    -0.000000
      dx2y2   :    -0.000000
      dxy     :    -0.000000

 11 H s       :    -0.001209  s :    -0.001209
      pz      :     0.000231  p :     0.000095
      px      :    -0.000052
      py      :    -0.000084
      dz2     :    -0.000001  d :     0.000009
      dxz     :     0.000004
      dyz     :     0.000004
      dx2y2   :     0.000001
      dxy     :     0.000001

 12 H s       :    -0.001014  s :    -0.001014
      pz      :     0.000203  p :     0.000082
      px      :    -0.000040
      py      :    -0.000081
      dz2     :    -0.000001  d :     0.000008
      dxz     :     0.000004
      dyz     :     0.000003
      dx2y2   :     0.000001
      dxy     :     0.000001

 13 O s       :     0.019108  s :     0.019108
      pz      :     0.873148  p :     0.990889
      px      :     0.003324
      py      :     0.114418
      dz2     :    -0.000150  d :     0.000265
      dxz     :     0.000013
      dyz     :     0.000226
      dx2y2   :     0.000104
      dxy     :     0.000072
      f0      :    -0.000091  f :    -0.000173
      f+1     :     0.000027
      f-1     :    -0.000063
      f+2     :    -0.000074
      f-2     :    -0.000017
      f+3     :     0.000013
      f-3     :     0.000031

 14 H s       :    -0.036491  s :    -0.036491
      pz      :     0.008422  p :     0.005642
      px      :    -0.002453
      py      :    -0.000327
      dz2     :     0.000385  d :     0.001139
      dxz     :    -0.000023
      dyz     :     0.000644
      dx2y2   :     0.000279
      dxy     :    -0.000146



                     *******************************
                     * LOEWDIN POPULATION ANALYSIS *
                     *******************************

-------------------------------------------
LOEWDIN ATOMIC CHARGES AND SPIN POPULATIONS
-------------------------------------------
   0 C :   -0.019111    0.000085
   1 C :    0.001521    0.002140
   2 C :   -0.019239    0.000131
   3 C :   -0.017929    0.010323
   4 C :   -0.017048    0.009266
   5 H :    0.014713   -0.000209
   6 H :    0.013795    0.000139
   7 H :    0.004754    0.000189
   8 H :    0.015737    0.000556
   9 H :    0.013672    0.000157
  10 H :    0.014698   -0.000146
  11 H :    0.000390    0.000556
  12 H :    0.000592    0.000484
  13 O :    0.162323    0.932337
  14 H :   -0.168867    0.043992

----------------------------------------------------
LOEWDIN REDUCED ORBITAL CHARGES AND SPIN POPULATIONS
----------------------------------------------------
CHARGE
  0 C s       :     2.689898  s :     2.689898
      pz      :     1.000070  p :     2.881433
      px      :     0.950624
      py      :     0.930739
      dz2     :     0.067909  d :     0.405343
      dxz     :     0.095467
      dyz     :     0.055729
      dx2y2   :     0.097745
      dxy     :     0.088494
      f0      :     0.004609  f :     0.042436
      f+1     :     0.004382
      f-1     :     0.004997
      f+2     :     0.004823
      f-2     :     0.005669
      f+3     :     0.009247
      f-3     :     0.008709

  1 C s       :     2.693032  s :     2.693032
      pz      :     1.007958  p :     2.873528
      px      :     0.911939
      py      :     0.953632
      dz2     :     0.085514  d :     0.390639
      dxz     :     0.053579
      dyz     :     0.063358
      dx2y2   :     0.099508
      dxy     :     0.088680
      f0      :     0.005762  f :     0.041280
      f+1     :     0.004708
      f-1     :     0.002581
      f+2     :     0.005573
      f-2     :     0.006057
      f+3     :     0.009301
      f-3     :     0.007297

  2 C s       :     2.689909  s :     2.689909
      pz      :     1.001040  p :     2.881451
      px      :     0.949851
      py      :     0.930560
      dz2     :     0.063128  d :     0.405439
      dxz     :     0.102296
      dyz     :     0.054573
      dx2y2   :     0.095843
      dxy     :     0.089599
      f0      :     0.004353  f :     0.042439
      f+1     :     0.004756
      f-1     :     0.004955
      f+2     :     0.004576
      f-2     :     0.005635
      f+3     :     0.009248
      f-3     :     0.008916

  3 C s       :     2.738475  s :     2.738475
      pz      :     0.837883  p :     2.840986
      px      :     1.042145
      py      :     0.960958
      dz2     :     0.026626  d :     0.395586
      dxz     :     0.061793
      dyz     :     0.033193
      dx2y2   :     0.112535
      dxy     :     0.161438
      f0      :     0.002374  f :     0.042883
      f+1     :     0.003512
      f-1     :     0.002970
      f+2     :     0.006922
      f-2     :     0.001980
      f+3     :     0.008392
      f-3     :     0.016733

  4 C s       :     2.738478  s :     2.738478
      pz      :     0.836646  p :     2.839964
      px      :     1.042514
      py      :     0.960803
      dz2     :     0.027200  d :     0.395707
      dxz     :     0.060679
      dyz     :     0.034111
      dx2y2   :     0.112181
      dxy     :     0.161536
      f0      :     0.002380  f :     0.042899
      f+1     :     0.003500
      f-1     :     0.002998
      f+2     :     0.007056
      f-2     :     0.001835
      f+3     :     0.008473
      f-3     :     0.016657

  5 H s       :     0.808373  s :     0.808373
      pz      :     0.066299  p :     0.148474
      px      :     0.042225
      py      :     0.039950
      dz2     :     0.009392  d :     0.028439
      dxz     :     0.008684
      dyz     :     0.007359
      dx2y2   :     0.001381
      dxy     :     0.001623

  6 H s       :     0.809707  s :     0.809707
      pz      :     0.052309  p :     0.147817
      px      :     0.056381
      py      :     0.039127
      dz2     :     0.007485  d :     0.028682
      dxz     :     0.007257
      dyz     :     0.003212
      dx2y2   :     0.005018
      dxy     :     0.005710

  7 H s       :     0.817207  s :     0.817207
      pz      :     0.047690  p :     0.149310
      px      :     0.039347
      py      :     0.062273
      dz2     :     0.006317  d :     0.028730
      dxz     :     0.001758
      dyz     :     0.007573
      dx2y2   :     0.005844
      dxy     :     0.007238

  8 H s       :     0.805132  s :     0.805132
      pz      :     0.071518  p :     0.149897
      px      :     0.038195
      py      :     0.040184
      dz2     :     0.009807  d :     0.029234
      dxz     :     0.008659
      dyz     :     0.009779
      dx2y2   :     0.000265
      dxy     :     0.000723

  9 H s       :     0.809827  s :     0.809827
      pz      :     0.053755  p :     0.147822
      px      :     0.055003
      py      :     0.039065
      dz2     :     0.007808  d :     0.028678
      dxz     :     0.007293
      dyz     :     0.003576
[...]
      f+2     :     0.000040
      f-2     :     0.000010
      f+3     :     0.000006
      f-3     :     0.000002
  1 C s       :     0.000095  s :     0.000095
      pz      :     0.001935  p :     0.002307
      px      :     0.000036
      py      :     0.000336
      dz2     :    -0.000189  d :    -0.000118
      dxz     :    -0.000015
      dyz     :     0.000190
      dx2y2   :    -0.000080
      dxy     :    -0.000024
      f0      :     0.000000  f :     0.000002
      f+1     :    -0.000004
      f-1     :     0.000013
      f+2     :    -0.000001
      f-2     :    -0.000001
      f+3     :    -0.000004
      f-3     :    -0.000000
  2 C s       :    -0.000008  s :    -0.000008
      pz      :    -0.000082  p :    -0.000229
      px      :    -0.000012
      py      :    -0.000135
      dz2     :    -0.000163  d :     0.000455
      dxz     :     0.000474
      dyz     :     0.000080
      dx2y2   :     0.000042
      dxy     :     0.000022
      f0      :     0.000094  f :     0.000155
      f+1     :     0.000000
      f-1     :     0.000010
      f+2     :     0.000037
      f-2     :     0.000007
      f+3     :     0.000006
      f-3     :     0.000001
  3 C s       :     0.000784  s :     0.000784
      pz      :     0.010257  p :     0.010677
      px      :     0.000100
      py      :     0.000321
      dz2     :     0.000295  d :     0.001301
      dxz     :     0.000711
      dyz     :     0.000198
      dx2y2   :     0.000104
      dxy     :    -0.000007
      f0      :     0.000039  f :     0.000174
      f+1     :     0.000000
      f-1     :    -0.000009
      f+2     :     0.000131
      f-2     :    -0.000000
      f+3     :     0.000004
      f-3     :     0.000009
  4 C s       :     0.000834  s :     0.000834
      pz      :     0.010950  p :     0.011398
      px      :     0.000094
      py      :     0.000354
      dz2     :     0.000129  d :     0.001221
      dxz     :     0.000817
      dyz     :     0.000210
      dx2y2   :     0.000081
      dxy     :    -0.000017
      f0      :     0.000042  f :     0.000159
      f+1     :    -0.000014
      f-1     :    -0.000011
      f+2     :     0.000135
      f-2     :     0.000000
      f+3     :    -0.000001
      f-3     :     0.000007
  5 H s       :     0.000014  s :     0.000014
      pz      :    -0.000048  p :    -0.000076
      px      :     0.000004
      py      :    -0.000032
      dz2     :     0.000001  d :    -0.000004
      dxz     :    -0.000001
      dyz     :    -0.000003
      dx2y2   :    -0.000000
      dxy     :    -0.000001
  6 H s       :     0.000189  s :     0.000189
      pz      :     0.000075  p :     0.000059
      px      :    -0.000001
      py      :    -0.000016
      dz2     :    -0.000004  d :    -0.000015
      dxz     :    -0.000006
      dyz     :    -0.000001
      dx2y2   :    -0.000003
      dxy     :    -0.000002
  7 H s       :     0.000114  s :     0.000114
      pz      :     0.000087  p :     0.000101
      px      :     0.000003
      py      :     0.000011
      dz2     :     0.000017  d :     0.000029
      dxz     :     0.000000
      dyz     :     0.000003
      dx2y2   :     0.000008
      dxy     :     0.000001
  8 H s       :     0.000378  s :     0.000378
      pz      :     0.000176  p :     0.000376
      px      :     0.000004
      py      :     0.000196
      dz2     :     0.000021  d :     0.000052
      dxz     :     0.000002
      dyz     :     0.000029
      dx2y2   :     0.000001
      dxy     :    -0.000000
  9 H s       :     0.000174  s :     0.000174
      pz      :     0.000074  p :     0.000060
      px      :    -0.000000
      py      :    -0.000014
      dz2     :    -0.000003  d :    -0.000015
      dxz     :    -0.000006
      dyz     :    -0.000001
      dx2y2   :    -0.000003
      dxy     :    -0.000001
 10 H s       :     0.000003  s :     0.000003
      pz      :    -0.000047  p :    -0.000073
      px      :     0.000005
      py      :    -0.000031
      dz2     :     0.000001  d :    -0.000003
      dxz     :    -0.000000
      dyz     :    -0.000002
      dx2y2   :    -0.000000
      dxy     :    -0.000001
 11 H s       :    -0.000357  s :    -0.000357
      pz      :     0.000835  p :     0.000945
      px      :     0.000029
      py      :     0.000081
      dz2     :    -0.000002  d :     0.000194
      dxz     :     0.000073
      dyz     :     0.000110
      dx2y2   :     0.000001
      dxy     :     0.000011
 12 H s       :    -0.000396  s :    -0.000396
      pz      :     0.000892  p :     0.001010
      px      :     0.000029
      py      :     0.000088
      dz2     :    -0.000003  d :     0.000207
      dxz     :     0.000080
      dyz     :     0.000117
      dx2y2   :     0.000002
      dxy     :     0.000011
 13 O s       :     0.010065  s :     0.010065
      pz      :     0.812003  p :     0.906087
      px      :     0.004585
      py      :     0.089499
      dz2     :     0.001170  d :     0.001993
      dxz     :     0.000713
      dyz     :     0.000812
      dx2y2   :    -0.000577
      dxy     :    -0.000125
      f0      :     0.000052  f :     0.000397
      f+1     :     0.000093
      f-1     :     0.000216
      f+2     :    -0.000032
      f-2     :     0.000079
      f+3     :    -0.000007
      f-3     :    -0.000003
 14 H s       :    -0.018328  s :    -0.018328
      pz      :     0.038832  p :     0.045033
      px      :    -0.003495
      py      :     0.009696
      dz2     :     0.006044  d :     0.022174
      dxz     :     0.000084
      dyz     :     0.012054
      dx2y2   :     0.003499
      dxy     :     0.000493


                      *****************************
                      * MAYER POPULATION ANALYSIS *
                      *****************************

  NA   - Mulliken gross atomic population
  ZA   - Total nuclear charge
  QA   - Mulliken gross atomic charge
  VA   - Mayer's total valence
  BVA  - Mayer's bonded valence
  FA   - Mayer's free valence

  ATOM       NA         ZA         QA         VA         BVA        FA
  0 C      6.0867     6.0000    -0.0867     3.9239     3.7419     0.1820
  1 C      6.1877     6.0000    -0.1877     4.0119     3.8251     0.1867
  2 C      6.0865     6.0000    -0.0865     3.9244     3.7424     0.1820
  3 C      6.1880     6.0000    -0.1880     3.9613     3.7348     0.2264
  4 C      6.1861     6.0000    -0.1861     3.9604     3.7341     0.2263
  5 H      0.9197     1.0000     0.0803     1.0095     0.9731     0.0364
  6 H      0.9143     1.0000     0.0857     1.0189     0.9833     0.0356
  7 H      0.9132     1.0000     0.0868     1.0136     0.9784     0.0352
  8 H      0.9019     1.0000     0.0981     1.0224     0.9873     0.0350
  9 H      0.9146     1.0000     0.0854     1.0188     0.9832     0.0356
 10 H      0.9197     1.0000     0.0803     1.0095     0.9731     0.0364
 11 H      0.8880     1.0000     0.1120     1.0111     0.9771     0.0340
 12 H      0.8884     1.0000     0.1116     1.0113     0.9773     0.0340
 13 O      8.2388     8.0000    -0.2388     2.1175     1.0269     1.0906
 14 H      0.7665     1.0000     0.2335     1.0178     0.9822     0.0356

  Mayer bond orders larger than 0.100000
B(  0-C ,  1-C ) :   0.9173 B(  0-C ,  4-C ) :   0.9352 B(  0-C ,  5-H ) :   0.9569 
B(  0-C ,  6-H ) :   0.9669 B(  1-C ,  2-C ) :   0.9170 B(  1-C ,  7-H ) :   0.9721 
B(  1-C ,  8-H ) :   0.9756 B(  2-C ,  3-C ) :   0.9355 B(  2-C ,  9-H ) :   0.9669 
B(  2-C , 10-H ) :   0.9569 B(  3-C ,  4-C ) :   1.7857 B(  3-C , 11-H ) :   0.9586 
B(  4-C , 12-H ) :   0.9588 B( 13-O , 14-H ) :   0.9639 


-------
TIMINGS
-------

Total time                :   36.450 sec
Integral trafo            :    0.423 sec (  1.2%)
FC preparation            :    0.276 sec (  0.8%)
I/O of integrals          :    0.148 sec (  0.4%)
K(i,j) operators          :    0.665 sec (  1.8%)
T(i,j) pair energies      :    0.062 sec (  0.2%)
V**(-1/2)                 :    0.105 sec (  0.3%)
Gamma(ia|P)               :    0.609 sec (  1.7%)
Gamma-Trafo               :    0.117 sec (  0.3%)
D(virtual)                :    0.129 sec (  0.4%)
D(internal)               :    0.278 sec (  0.8%)
W(virtual)                :    0.133 sec (  0.4%)
W(internal)               :    0.339 sec (  0.9%)
L(virtual)                :    0.238 sec (  0.7%)
L(internal)               :    0.015 sec (  0.0%)
XC kernel                 :    0.027 sec (  0.1%)
G(D)                      :    2.549 sec (  7.0%)
G(Z)                      :    2.565 sec (  7.0%)
Z-vector solution         :   10.486 sec ( 28.8%)
3-index derivative        :    0.545 sec (  1.5%)
2-index derivative        :    0.031 sec (  0.1%)
Fock matrix gradient      :   15.840 sec ( 43.5%)


---------------------------------------
MP2 TOTAL ENERGY:     -270.656595984 Eh
---------------------------------------

The final MP2 gradient
  0:   0.00000161   0.00000518  -0.00000323
  1:  -0.00000565  -0.00000075   0.00000033
  2:   0.00000090  -0.00000140   0.00000154
  3:  -0.00000177   0.00000503  -0.00000023
  4:   0.00000240  -0.00000532   0.00000000
  5:   0.00000237   0.00000159  -0.00000077
  6:   0.00000089   0.00000156  -0.00000134
  7:   0.00000084   0.00000186  -0.00000052
  8:  -0.00000068   0.00000093  -0.00000107
  9:   0.00000131   0.00000161   0.00000035
 10:   0.00000194   0.00000211  -0.00000084
 11:  -0.00000029   0.00000357   0.00000058
 12:  -0.00000161   0.00000098  -0.00000117
 13:   0.00000412   0.00000795   0.00000059
 14:  -0.00000321   0.00000059  -0.00000100

-----------------------------------
NORM OF THE MP2 GRADIENT:  0.000017
-----------------------------------

Maximum memory used throughout the entire MP2-calculation: 69.5 MB


-------------------------------------------------------------------------------
                          DFT DISPERSION CORRECTION                            
                                                                               
                                DFTD4 V3.4.0                                   
-------------------------------------------------------------------------------
The REV-DSD-PBEP86-2021 functional is recognized
A user input s6-coefficient scaling factor has been recognized
A user input a1-coefficient scaling factor has been recognized
A user input s8-coefficient scaling factor has been recognized
A user input a2-coefficient scaling factor has been recognized
A user input s9-coefficient scaling factor has been recognized
Active option DFTDOPT                   ...         5   

-------------------------   ----------------
Dispersion correction           -0.007619142
-------------------------   ----------------


-------------------------   --------------------
FINAL SINGLE POINT ENERGY      -270.664215125716
-------------------------   --------------------

                                *** OPTIMIZATION RUN DONE ***



           ************************************************************
           *        Program running with 8 parallel MPI-processes     *
           *              working on a common directory               *
           ************************************************************

------------------------------------------------------------------------------
                              ORCA PROPERTY CALCULATIONS
------------------------------------------------------------------------------

GBWName                                 ... opt.gbw
Number of atoms                         ...     15
Number of basis functions               ...    312
Max core memory                         ...   6000 MB

Electric properties:
Dipole moment                           ... YES
Quadrupole moment                       ...  NO
Static polarizability (Dipole/Dipole)   ...  NO
Static polarizability (Dipole/Quad.)    ...  NO
Static polarizability (Quad./Quad.)     ...  NO
Static polarizability (Velocity)        ...  NO
Static hyperpolarizability              ...  NO

Atomic electric properties:
Dipole moment                           ...  NO
Quadrupole moment                       ...  NO
Static polarizability                   ...  NO

Choice of electric origin               ... Center of mass
Position of electric origin             ...     0.012653    -0.206339     0.395664

General magnetic properties:
Magnetizability                         ...  NO

EPR properties:
g-Tensor (aka g-matrix)                 ...  NO
Zero-Field splitting spin-orbit         ...  NO
Zero-field splitting spin-spin          ...  NO
Hyperfine couplings                     ...  NO (   0 nuclei)
Quadrupole couplings                    ...  NO (   0 nuclei)
Contact density                         ...  NO (   0 nuclei)

NMR properties:
Chemical shifts                         ...  NO (   0 nuclei)
Spin-rotation constants                 ...  NO (   0 nuclei)
Spin-spin couplings                     ...  NO (   0 nuclei,    0 pairs)

Choice of magnetic origin               ... GIAO
Position of magnetic origin             ...     0.000000     0.000000     0.000000

Properties with geometric perturbations:
SCF Hessian                             ...  NO
IR spectrum                             ...  NO
VCD spectrum                            ...  NO
X-ray spectroscopy properties:
SCF XES/XAS/RIXS spectra                ...  NO

SCF SOC stabilization energy            ...  NO
Diagonal Born-Oppenheimer correction    ...  NO

-------------
DIPOLE MOMENT
-------------

Method             : SCF
Type of density    : Electron Density
Multiplicity       :   2
Irrep              :   0
Energy             :  -270.1110843710824838 Eh
Basis              : AO
                                X                 Y                 Z
Electronic contribution:      0.068154851      -1.964190008       2.094061504
Nuclear contribution   :     -0.081287424       1.493846127      -2.401600783
                        -----------------------------------------
Total Dipole Moment    :     -0.013132573      -0.470343882      -0.307539279
                        -----------------------------------------
Magnitude (a.u.)       :      0.562117638
Magnitude (Debye)      :      1.428789489



--------------------
Rotational spectrum 
--------------------
 
Rotational constants in cm-1:             0.134154             0.090096             0.088759 
Rotational constants in MHz :          4021.840558          2701.016423          2660.919366 

Dipole components along the rotational axes: 
x,y,z [a.u.] :    -0.104940     0.020777     0.551844 
x,y,z [Debye]:    -0.266736     0.052811     1.402677 

 

-------------
DIPOLE MOMENT
-------------

Method             : MP2
Type of density    : Electron Density
Multiplicity       :   2
Level              : Unrelaxed density
Irrep              :   0
Energy             :     0.0000000000000000 Eh
Basis              : AO
                                X                 Y                 Z
Electronic contribution:      0.068258953      -1.955524695       2.095961294
Nuclear contribution   :     -0.081287424       1.493846127      -2.401600783
                        -----------------------------------------
Total Dipole Moment    :     -0.013028470      -0.461678569      -0.305639489
                        -----------------------------------------
Magnitude (a.u.)       :      0.553834216
Magnitude (Debye)      :      1.407734703



--------------------
Rotational spectrum 
--------------------
 
Rotational constants in cm-1:             0.134154             0.090096             0.088759 
Rotational constants in MHz :          4021.840558          2701.016423          2660.919366 

Dipole components along the rotational axes: 
x,y,z [a.u.] :    -0.106490     0.020463     0.543115 
x,y,z [Debye]:    -0.270676     0.052012     1.380488 

 

-------------
DIPOLE MOMENT
-------------

Method             : MP2
Type of density    : Electron Density
Multiplicity       :   2
Level              : Relaxed density
Irrep              :   0
Energy             :     0.0000000000000000 Eh
Basis              : AO
                                X                 Y                 Z
Electronic contribution:      0.067618123      -1.944085710       2.069825576
Nuclear contribution   :     -0.081287424       1.493846127      -2.401600783
                        -----------------------------------------
Total Dipole Moment    :     -0.013669301      -0.450239584      -0.331775208
                        -----------------------------------------
Magnitude (a.u.)       :      0.559443760
Magnitude (Debye)      :      1.421993031



--------------------
Rotational spectrum 
--------------------
 
Rotational constants in cm-1:             0.134154             0.090096             0.088759 
Rotational constants in MHz :          4021.840558          2701.016423          2660.919366 

Dipole components along the rotational axes: 
x,y,z [a.u.] :    -0.135020     0.020300     0.542526 
x,y,z [Debye]:    -0.343193     0.051598     1.378992 

 

Dipole moment calculation done in   0.0 sec 

Maximum memory used throughout the entire PROP-calculation: 17.0 MB

----------------------------------------------------------------------------
                           ORCA NUMERICAL FREQUENCIES
                              (8-process run)
----------------------------------------------------------------------------

Number of atoms                ... 15
Central differences            ... used
Translation invariance         ... used
Number of displacements        ... 90 - 6
Numerical increment            ... 5.000e-03 bohr
IR-spectrum generation         ... on
Raman-spectrum generation      ... off
Surface Crossing Hessian       ... off

The output will be reduced. Please look at the following files:
SCF program output             ... >opt.lastscf
Integral program output        ... >opt.lastint
Gradient program output        ... >opt.lastgrad
Dipole moment program output   ... >opt.lastmom

List of participating nodes    ...  opt.hostnames

	<< Calculating gradient on displaced geometry   5 (of  84) >>
	<< Calculating gradient on displaced geometry   8 (of  84) >>
	<< Calculating gradient on displaced geometry   2 (of  84) >>
	<< Calculating gradient on displaced geometry   1 (of  84) >>
	<< Calculating gradient on displaced geometry   3 (of  84) >>
	<< Calculating gradient on displaced geometry   6 (of  84) >>
	<< Calculating gradient on displaced geometry   7 (of  84) >>
	<< Calculating gradient on displaced geometry   4 (of  84) >>
	<< Calculating gradient on displaced geometry   9 (of  84) >>
	<< Calculating gradient on displaced geometry  10 (of  84) >>
	<< Calculating gradient on displaced geometry  11 (of  84) >>
	<< Calculating gradient on displaced geometry  12 (of  84) >>
	<< Calculating gradient on displaced geometry  13 (of  84) >>
	<< Calculating gradient on displaced geometry  14 (of  84) >>
	<< Calculating gradient on displaced geometry  15 (of  84) >>
	<< Calculating gradient on displaced geometry  16 (of  84) >>
	<< Calculating gradient on displaced geometry  17 (of  84) >>
	<< Calculating gradient on displaced geometry  18 (of  84) >>
	<< Calculating gradient on displaced geometry  19 (of  84) >>
	<< Calculating gradient on displaced geometry  20 (of  84) >>
	<< Calculating gradient on displaced geometry  21 (of  84) >>
	<< Calculating gradient on displaced geometry  22 (of  84) >>
	<< Calculating gradient on displaced geometry  23 (of  84) >>
	<< Calculating gradient on displaced geometry  24 (of  84) >>
	<< Calculating gradient on displaced geometry  25 (of  84) >>
	<< Calculating gradient on displaced geometry  26 (of  84) >>
	<< Calculating gradient on displaced geometry  27 (of  84) >>
	<< Calculating gradient on displaced geometry  28 (of  84) >>
	<< Calculating gradient on displaced geometry  29 (of  84) >>
	<< Calculating gradient on displaced geometry  30 (of  84) >>
	<< Calculating gradient on displaced geometry  31 (of  84) >>
	<< Calculating gradient on displaced geometry  32 (of  84) >>
