15
* (null), Energy   -1000.0000000
C    -0.336975    1.191427    0.489555   -0.014185   -0.003121    0.051245
C    -1.258492    0.886285   -0.429021   -0.004337   -0.007975    0.032299
H    -0.101090    2.192163    0.829558   -0.165014    0.081049    0.045350
C    -1.297733   -0.594917   -0.713040    0.031320    0.038568   -0.036326
H    -1.884528    1.606376   -0.941996   -0.023497   -0.082352   -0.067886
C    -0.480819   -1.190085    0.453282    0.055826    0.009578   -0.030341
H    -0.828780   -0.807101   -1.680917    0.000057    0.134651   -0.096226
H    -2.314469   -0.991391   -0.759955    0.027695    0.072427   -0.025975
C     0.391198   -0.030994    0.951514    0.005915    0.019560   -0.018658
H     0.104875   -2.062872    0.165197    0.120662    0.083735   -0.003361
H    -1.161289   -1.489082    1.255329   -0.026001   -0.013778   -0.073659
H     1.421172   -0.079015    0.421973    0.167922    0.086592   -0.273575
H     0.641845   -0.059229    2.013469    0.284502    0.033510   -0.075819
O     2.494821   -0.062117   -0.586411   -0.025983    0.023222    0.095581
H     2.060618    0.616781   -1.125106   -0.862099   -1.438967   -0.924695
15
* Frequency(6) -1036.0713
C    -0.338587    1.191072    0.495379   -0.014185   -0.003121    0.051245
C    -1.258985    0.885379   -0.425350   -0.004337   -0.007975    0.032299
H    -0.119843    2.201374    0.834712   -0.165014    0.081049    0.045350
C    -1.294174   -0.590534   -0.717168    0.031320    0.038568   -0.036326
H    -1.887198    1.597017   -0.949711   -0.023497   -0.082352   -0.067886
C    -0.474475   -1.188997    0.449834    0.055826    0.009578   -0.030341
H    -0.828774   -0.791799   -1.691853    0.000057    0.134651   -0.096226
H    -2.311322   -0.983160   -0.762907    0.027695    0.072427   -0.025975
C     0.391870   -0.028771    0.949394    0.005915    0.019560   -0.018658
H     0.118588   -2.053356    0.164815    0.120662    0.083735   -0.003361
H    -1.164244   -1.490648    1.246958   -0.026001   -0.013778   -0.073659
H     1.440256   -0.069174    0.390883    0.167922    0.086592   -0.273575
H     0.674177   -0.055421    2.004853    0.284502    0.033510   -0.075819
O     2.491868   -0.059478   -0.575549   -0.025983    0.023222    0.095581
H     1.962645    0.453250   -1.230193   -0.862099   -1.438967   -0.924695
15
* Frequency(6) -1036.0713
C    -0.340025    1.190756    0.500571   -0.014185   -0.003121    0.051245
C    -1.259424    0.884571   -0.422078   -0.004337   -0.007975    0.032299
H    -0.136564    2.209586    0.839307   -0.165014    0.081049    0.045350
C    -1.291000   -0.586626   -0.720849    0.031320    0.038568   -0.036326
H    -1.889579    1.588672   -0.956590   -0.023497   -0.082352   -0.067886
C    -0.468818   -1.188026    0.446760    0.055826    0.009578   -0.030341
H    -0.828768   -0.778154   -1.701603    0.000057    0.134651   -0.096226
H    -2.308515   -0.975821   -0.765539    0.027695    0.072427   -0.025975
C     0.392470   -0.026789    0.947503    0.005915    0.019560   -0.018658
H     0.130814   -2.044871    0.164475    0.120662    0.083735   -0.003361
H    -1.166879   -1.492044    1.239494   -0.026001   -0.013778   -0.073659
H     1.457271   -0.060400    0.363161    0.167922    0.086592   -0.273575
H     0.703006   -0.052025    1.997170    0.284502    0.033510   -0.075819
O     2.489235   -0.057125   -0.565863   -0.025983    0.023222    0.095581
H     1.875289    0.307440   -1.323892   -0.862099   -1.438967   -0.924695
15
* Frequency(6) -1036.0713
C    -0.341131    1.190512    0.504570   -0.014185   -0.003121    0.051245
C    -1.259763    0.883948   -0.419557   -0.004337   -0.007975    0.032299
H    -0.149440    2.215911    0.842846   -0.165014    0.081049    0.045350
C    -1.288556   -0.583616   -0.723684    0.031320    0.038568   -0.036326
H    -1.891413    1.582246   -0.961887   -0.023497   -0.082352   -0.067886
C    -0.464462   -1.187279    0.444392    0.055826    0.009578   -0.030341
H    -0.828763   -0.767647   -1.709112    0.000057    0.134651   -0.096226
H    -2.306354   -0.970169   -0.767566    0.027695    0.072427   -0.025975
C     0.392931   -0.025263    0.946047    0.005915    0.019560   -0.018658
H     0.140230   -2.038337    0.164212    0.120662    0.083735   -0.003361
H    -1.168907   -1.493119    1.233746   -0.026001   -0.013778   -0.073659
H     1.470375   -0.053643    0.341813    0.167922    0.086592   -0.273575
H     0.725206   -0.049410    1.991254    0.284502    0.033510   -0.075819
O     2.487208   -0.055313   -0.558405   -0.025983    0.023222    0.095581
H     1.808016    0.195152   -1.396049   -0.862099   -1.438967   -0.924695
15
* Frequency(6) -1036.0713
C    -0.341788    1.190368    0.506942   -0.014185   -0.003121    0.051245
C    -1.259964    0.883579   -0.418062   -0.004337   -0.007975    0.032299
H    -0.157077    2.219662    0.844945   -0.165014    0.081049    0.045350
C    -1.287106   -0.581831   -0.725365    0.031320    0.038568   -0.036326
H    -1.892500    1.578435   -0.965029   -0.023497   -0.082352   -0.067886
C    -0.461878   -1.186835    0.442988    0.055826    0.009578   -0.030341
H    -0.828761   -0.761415   -1.713566    0.000057    0.134651   -0.096226
H    -2.305072   -0.966817   -0.768768    0.027695    0.072427   -0.025975
C     0.393205   -0.024357    0.945184    0.005915    0.019560   -0.018658
H     0.145814   -2.034461    0.164057    0.120662    0.083735   -0.003361
H    -1.170111   -1.493757    1.230337   -0.026001   -0.013778   -0.073659
H     1.478146   -0.049635    0.329152    0.167922    0.086592   -0.273575
H     0.738374   -0.047859    1.987744    0.284502    0.033510   -0.075819
O     2.486005   -0.054238   -0.553981   -0.025983    0.023222    0.095581
H     1.768116    0.128554   -1.438846   -0.862099   -1.438967   -0.924695
15
* Frequency(6) -1036.0713
C    -0.341923    1.190338    0.507430   -0.014185   -0.003121    0.051245
C    -1.260005    0.883503   -0.417755   -0.004337   -0.007975    0.032299
H    -0.158647    2.220433    0.845376   -0.165014    0.081049    0.045350
C    -1.286808   -0.581464   -0.725711    0.031320    0.038568   -0.036326
H    -1.892724    1.577651   -0.965675   -0.023497   -0.082352   -0.067886
C    -0.461347   -1.186744    0.442699    0.055826    0.009578   -0.030341
H    -0.828760   -0.760134   -1.714481    0.000057    0.134651   -0.096226
H    -2.304809   -0.966128   -0.769015    0.027695    0.072427   -0.025975
C     0.393261   -0.024171    0.945006    0.005915    0.019560   -0.018658
H     0.146962   -2.033665    0.164025    0.120662    0.083735   -0.003361
H    -1.170358   -1.493888    1.229636   -0.026001   -0.013778   -0.073659
H     1.479744   -0.048811    0.326549    0.167922    0.086592   -0.273575
H     0.741081   -0.047540    1.987023    0.284502    0.033510   -0.075819
O     2.485758   -0.054017   -0.553072   -0.025983    0.023222    0.095581
H     1.759914    0.114863   -1.447644   -0.862099   -1.438967   -0.924695
15
* Frequency(6) -1036.0713
C    -0.341522    1.190427    0.505980   -0.014185   -0.003121    0.051245
C    -1.259882    0.883729   -0.418668   -0.004337   -0.007975    0.032299
H    -0.153980    2.218141    0.844094   -0.165014    0.081049    0.045350
C    -1.287694   -0.582555   -0.724683    0.031320    0.038568   -0.036326
H    -1.892059    1.579981   -0.963755   -0.023497   -0.082352   -0.067886
C    -0.462926   -1.187015    0.443557    0.055826    0.009578   -0.030341
H    -0.828762   -0.763942   -1.711759    0.000057    0.134651   -0.096226
H    -2.305592   -0.968177   -0.768281    0.027695    0.072427   -0.025975
C     0.393094   -0.024725    0.945534    0.005915    0.019560   -0.018658
H     0.143550   -2.036033    0.164120    0.120662    0.083735   -0.003361
H    -1.169623   -1.493498    1.231720   -0.026001   -0.013778   -0.073659
H     1.474995   -0.051260    0.334287    0.167922    0.086592   -0.273575
H     0.733034   -0.048488    1.989168    0.284502    0.033510   -0.075819
O     2.486493   -0.054674   -0.555775   -0.025983    0.023222    0.095581
H     1.784297    0.155562   -1.421490   -0.862099   -1.438967   -0.924695
15
* Frequency(6) -1036.0713
C    -0.340628    1.190623    0.502751   -0.014185   -0.003121    0.051245
C    -1.259609    0.884231   -0.420704   -0.004337   -0.007975    0.032299
H    -0.143582    2.213033    0.841236   -0.165014    0.081049    0.045350
C    -1.289668   -0.584986   -0.722394    0.031320    0.038568   -0.036326
H    -1.890579    1.585170   -0.959477   -0.023497   -0.082352   -0.067886
C    -0.466444   -1.187619    0.445469    0.055826    0.009578   -0.030341
H    -0.828765   -0.772428   -1.705696    0.000057    0.134651   -0.096226
H    -2.307337   -0.972741   -0.766644    0.027695    0.072427   -0.025975
C     0.392721   -0.025957    0.946709    0.005915    0.019560   -0.018658
H     0.135946   -2.041310    0.164332    0.120662    0.083735   -0.003361
H    -1.167984   -1.492630    1.236361   -0.026001   -0.013778   -0.073659
H     1.464413   -0.056717    0.351527    0.167922    0.086592   -0.273575
H     0.715105   -0.050600    1.993945    0.284502    0.033510   -0.075819
O     2.488130   -0.056137   -0.561799   -0.025983    0.023222    0.095581
H     1.838625    0.246242   -1.363218   -0.862099   -1.438967   -0.924695
15
* Frequency(6) -1036.0713
C    -0.339338    1.190907    0.498092   -0.014185   -0.003121    0.051245
C    -1.259214    0.884957   -0.423641   -0.004337   -0.007975    0.032299
H    -0.128578    2.205664    0.837112   -0.165014    0.081049    0.045350
C    -1.292516   -0.588492   -0.719091    0.031320    0.038568   -0.036326
H    -1.888442    1.592658   -0.953305   -0.023497   -0.082352   -0.067886
C    -0.471519   -1.188489    0.448228    0.055826    0.009578   -0.030341
H    -0.828770   -0.784671   -1.696947    0.000057    0.134651   -0.096226
H    -2.309856   -0.979326   -0.764282    0.027695    0.072427   -0.025975
C     0.392183   -0.027736    0.948406    0.005915    0.019560   -0.018658
H     0.124975   -2.048923    0.164637    0.120662    0.083735   -0.003361
H    -1.165620   -1.491377    1.243059   -0.026001   -0.013778   -0.073659
H     1.449145   -0.064590    0.376400    0.167922    0.086592   -0.273575
H     0.689238   -0.053647    2.000839    0.284502    0.033510   -0.075819
O     2.490493   -0.058249   -0.570489   -0.025983    0.023222    0.095581
H     1.917008    0.377076   -1.279143   -0.862099   -1.438967   -0.924695
15
* Frequency(6) -1036.0713
C    -0.337792    1.191247    0.492507   -0.014185   -0.003121    0.051245
C    -1.258742    0.885826   -0.427160   -0.004337   -0.007975    0.032299
H    -0.110596    2.196832    0.832171   -0.165014    0.081049    0.045350
C    -1.295929   -0.592695   -0.715133    0.031320    0.038568   -0.036326
H    -1.885882    1.601632   -0.945907   -0.023497   -0.082352   -0.067886
C    -0.477603   -1.189533    0.451534    0.055826    0.009578   -0.030341
H    -0.828777   -0.799344   -1.686460    0.000057    0.134651   -0.096226
H    -2.312874   -0.987219   -0.761451    0.027695    0.072427   -0.025975
C     0.391539   -0.029867    0.950439    0.005915    0.019560   -0.018658
H     0.111826   -2.058048    0.165003    0.120662    0.083735   -0.003361
H    -1.162787   -1.489876    1.251086   -0.026001   -0.013778   -0.073659
H     1.430846   -0.074027    0.406213    0.167922    0.086592   -0.273575
H     0.658235   -0.057299    2.009101    0.284502    0.033510   -0.075819
O     2.493324   -0.060779   -0.580905   -0.025983    0.023222    0.095581
H     2.010954    0.533885   -1.178376   -0.862099   -1.438967   -0.924695
15
* Frequency(6) -1036.0713
C    -0.336158    1.191607    0.486603   -0.014185   -0.003121    0.051245
C    -1.258242    0.886744   -0.430882   -0.004337   -0.007975    0.032299
H    -0.091584    2.187494    0.826945   -0.165014    0.081049    0.045350
C    -1.299537   -0.597139   -0.710947    0.031320    0.038568   -0.036326
H    -1.883174    1.611120   -0.938085   -0.023497   -0.082352   -0.067886
C    -0.484035   -1.190637    0.455030    0.055826    0.009578   -0.030341
H    -0.828783   -0.814858   -1.675374    0.000057    0.134651   -0.096226
H    -2.316064   -0.995563   -0.758459    0.027695    0.072427   -0.025975
C     0.390857   -0.032121    0.952589    0.005915    0.019560   -0.018658
H     0.097924   -2.067696    0.165391    0.120662    0.083735   -0.003361
H    -1.159791   -1.488288    1.259572   -0.026001   -0.013778   -0.073659
H     1.411498   -0.084003    0.437733    0.167922    0.086592   -0.273575
H     0.625455   -0.061159    2.017837    0.284502    0.033510   -0.075819
O     2.496318   -0.063455   -0.591917   -0.025983    0.023222    0.095581
H     2.110282    0.699677   -1.071836   -0.862099   -1.438967   -0.924695
15
* Frequency(6) -1036.0713
C    -0.334612    1.191947    0.481018   -0.014185   -0.003121    0.051245
C    -1.257770    0.887613   -0.434401   -0.004337   -0.007975    0.032299
H    -0.073602    2.178662    0.822004   -0.165014    0.081049    0.045350
C    -1.302950   -0.601342   -0.706989    0.031320    0.038568   -0.036326
H    -1.880614    1.620094   -0.930687   -0.023497   -0.082352   -0.067886
C    -0.490119   -1.191681    0.458336    0.055826    0.009578   -0.030341
H    -0.828790   -0.829531   -1.664887    0.000057    0.134651   -0.096226
H    -2.319082   -1.003456   -0.755628    0.027695    0.072427   -0.025975
C     0.390213   -0.034252    0.954622    0.005915    0.019560   -0.018658
H     0.084775   -2.076821    0.165757    0.120662    0.083735   -0.003361
H    -1.156958   -1.486787    1.267599   -0.026001   -0.013778   -0.073659
H     1.393199   -0.093440    0.467546    0.167922    0.086592   -0.273575
H     0.594452   -0.064811    2.026099    0.284502    0.033510   -0.075819
O     2.499149   -0.065985   -0.602333   -0.025983    0.023222    0.095581
H     2.204228    0.856486   -0.971069   -0.862099   -1.438967   -0.924695
15
* Frequency(6) -1036.0713
C    -0.333322    1.192231    0.476359   -0.014185   -0.003121    0.051245
C    -1.257375    0.888339   -0.437338   -0.004337   -0.007975    0.032299
H    -0.058598    2.171293    0.817880   -0.165014    0.081049    0.045350
C    -1.305798   -0.604848   -0.703686    0.031320    0.038568   -0.036326
H    -1.878477    1.627582   -0.924515   -0.023497   -0.082352   -0.067886
C    -0.495194   -1.192551    0.461095    0.055826    0.009578   -0.030341
H    -0.828795   -0.841774   -1.656138    0.000057    0.134651   -0.096226
H    -2.321601   -1.010041   -0.753266    0.027695    0.072427   -0.025975
C     0.389675   -0.036031    0.956319    0.005915    0.019560   -0.018658
H     0.073804   -2.084434    0.166062    0.120662    0.083735   -0.003361
H    -1.154594   -1.485534    1.274297   -0.026001   -0.013778   -0.073659
H     1.377931   -0.101313    0.492419    0.167922    0.086592   -0.273575
H     0.568585   -0.067858    2.032993    0.284502    0.033510   -0.075819
O     2.501512   -0.068097   -0.611023   -0.025983    0.023222    0.095581
H     2.282611    0.987320   -0.886994   -0.862099   -1.438967   -0.924695
15
* Frequency(6) -1036.0713
C    -0.332428    1.192427    0.473130   -0.014185   -0.003121    0.051245
C    -1.257102    0.888841   -0.439374   -0.004337   -0.007975    0.032299
H    -0.048200    2.166185    0.815022   -0.165014    0.081049    0.045350
C    -1.307772   -0.607279   -0.701397    0.031320    0.038568   -0.036326
H    -1.876997    1.632771   -0.920237   -0.023497   -0.082352   -0.067886
C    -0.498712   -1.193155    0.463007    0.055826    0.009578   -0.030341
H    -0.828798   -0.850260   -1.650075    0.000057    0.134651   -0.096226
H    -2.323346   -1.014605   -0.751629    0.027695    0.072427   -0.025975
C     0.389302   -0.037263    0.957494    0.005915    0.019560   -0.018658
H     0.066200   -2.089711    0.166274    0.120662    0.083735   -0.003361
H    -1.152955   -1.484666    1.278938   -0.026001   -0.013778   -0.073659
H     1.367349   -0.106770    0.509659    0.167922    0.086592   -0.273575
H     0.550656   -0.069970    2.037770    0.284502    0.033510   -0.075819
O     2.503149   -0.069560   -0.617047   -0.025983    0.023222    0.095581
H     2.336939    1.078000   -0.828722   -0.862099   -1.438967   -0.924695
15
* Frequency(6) -1036.0713
C    -0.332027    1.192516    0.471680   -0.014185   -0.003121    0.051245
C    -1.256979    0.889067   -0.440287   -0.004337   -0.007975    0.032299
H    -0.043533    2.163893    0.813740   -0.165014    0.081049    0.045350
C    -1.308658   -0.608370   -0.700369    0.031320    0.038568   -0.036326
H    -1.876332    1.635101   -0.918317   -0.023497   -0.082352   -0.067886
C    -0.500291   -1.193426    0.463865    0.055826    0.009578   -0.030341
H    -0.828800   -0.854068   -1.647353    0.000057    0.134651   -0.096226
H    -2.324129   -1.016654   -0.750895    0.027695    0.072427   -0.025975
C     0.389135   -0.037817    0.958022    0.005915    0.019560   -0.018658
H     0.062788   -2.092079    0.166369    0.120662    0.083735   -0.003361
H    -1.152220   -1.484276    1.281022   -0.026001   -0.013778   -0.073659
H     1.362600   -0.109219    0.517397    0.167922    0.086592   -0.273575
H     0.542609   -0.070918    2.039915    0.284502    0.033510   -0.075819
O     2.503884   -0.070217   -0.619750   -0.025983    0.023222    0.095581
H     2.361322    1.118699   -0.802568   -0.862099   -1.438967   -0.924695
15
* Frequency(6) -1036.0713
C    -0.332162    1.192486    0.472168   -0.014185   -0.003121    0.051245
C    -1.257020    0.888991   -0.439980   -0.004337   -0.007975    0.032299
H    -0.045103    2.164664    0.814171   -0.165014    0.081049    0.045350
C    -1.308360   -0.608003   -0.700715    0.031320    0.038568   -0.036326
H    -1.876556    1.634317   -0.918963   -0.023497   -0.082352   -0.067886
C    -0.499760   -1.193335    0.463576    0.055826    0.009578   -0.030341
H    -0.828799   -0.852787   -1.648268    0.000057    0.134651   -0.096226
H    -2.323866   -1.015965   -0.751142    0.027695    0.072427   -0.025975
C     0.389191   -0.037631    0.957844    0.005915    0.019560   -0.018658
H     0.063936   -2.091283    0.166337    0.120662    0.083735   -0.003361
H    -1.152467   -1.484407    1.280321   -0.026001   -0.013778   -0.073659
H     1.364198   -0.108395    0.514794    0.167922    0.086592   -0.273575
H     0.545316   -0.070599    2.039194    0.284502    0.033510   -0.075819
O     2.503637   -0.069996   -0.618841   -0.025983    0.023222    0.095581
H     2.353120    1.105008   -0.811366   -0.862099   -1.438967   -0.924695
15
* Frequency(6) -1036.0713
C    -0.332819    1.192342    0.474540   -0.014185   -0.003121    0.051245
C    -1.257221    0.888622   -0.438485   -0.004337   -0.007975    0.032299
H    -0.052740    2.168415    0.816270   -0.165014    0.081049    0.045350
C    -1.306910   -0.606218   -0.702396    0.031320    0.038568   -0.036326
H    -1.877643    1.630506   -0.922105   -0.023497   -0.082352   -0.067886
C    -0.497176   -1.192891    0.462172    0.055826    0.009578   -0.030341
H    -0.828797   -0.846555   -1.652722    0.000057    0.134651   -0.096226
H    -2.322584   -1.012613   -0.752344    0.027695    0.072427   -0.025975
C     0.389465   -0.036725    0.956981    0.005915    0.019560   -0.018658
H     0.069520   -2.087407    0.166182    0.120662    0.083735   -0.003361
H    -1.153671   -1.485045    1.276912   -0.026001   -0.013778   -0.073659
H     1.371969   -0.104387    0.502133    0.167922    0.086592   -0.273575
H     0.558484   -0.069048    2.035684    0.284502    0.033510   -0.075819
O     2.502434   -0.068921   -0.614417   -0.025983    0.023222    0.095581
H     2.313220    1.038410   -0.854163   -0.862099   -1.438967   -0.924695
15
* Frequency(6) -1036.0713
C    -0.333925    1.192098    0.478539   -0.014185   -0.003121    0.051245
C    -1.257560    0.887999   -0.435964   -0.004337   -0.007975    0.032299
H    -0.065616    2.174740    0.819809   -0.165014    0.081049    0.045350
C    -1.304466   -0.603208   -0.705231    0.031320    0.038568   -0.036326
H    -1.879477    1.624080   -0.927402   -0.023497   -0.082352   -0.067886
C    -0.492820   -1.192144    0.459804    0.055826    0.009578   -0.030341
H    -0.828792   -0.836048   -1.660231    0.000057    0.134651   -0.096226
H    -2.320423   -1.006961   -0.754371    0.027695    0.072427   -0.025975
C     0.389926   -0.035199    0.955525    0.005915    0.019560   -0.018658
H     0.078936   -2.080873    0.165919    0.120662    0.083735   -0.003361
H    -1.155699   -1.486120    1.271164   -0.026001   -0.013778   -0.073659
H     1.385073   -0.097630    0.480785    0.167922    0.086592   -0.273575
H     0.580684   -0.066433    2.029768    0.284502    0.033510   -0.075819
O     2.500407   -0.067109   -0.606959   -0.025983    0.023222    0.095581
H     2.245947    0.926122   -0.926320   -0.862099   -1.438967   -0.924695
15
* Frequency(6) -1036.0713
C    -0.335363    1.191782    0.483731   -0.014185   -0.003121    0.051245
C    -1.257999    0.887191   -0.432692   -0.004337   -0.007975    0.032299
H    -0.082337    2.182952    0.824404   -0.165014    0.081049    0.045350
C    -1.301292   -0.599300   -0.708912    0.031320    0.038568   -0.036326
H    -1.881858    1.615735   -0.934281   -0.023497   -0.082352   -0.067886
C    -0.487163   -1.191173    0.456730    0.055826    0.009578   -0.030341
H    -0.828786   -0.822403   -1.669981    0.000057    0.134651   -0.096226
H    -2.317616   -0.999622   -0.757003    0.027695    0.072427   -0.025975
C     0.390526   -0.033217    0.953634    0.005915    0.019560   -0.018658
H     0.091162   -2.072388    0.165579    0.120662    0.083735   -0.003361
H    -1.158334   -1.487516    1.263700   -0.026001   -0.013778   -0.073659
H     1.402088   -0.088856    0.453063    0.167922    0.086592   -0.273575
H     0.609513   -0.063037    2.022085    0.284502    0.033510   -0.075819
O     2.497774   -0.064756   -0.597273   -0.025983    0.023222    0.095581
H     2.158591    0.780312   -1.020019   -0.862099   -1.438967   -0.924695
15
* Frequency(6) -1036.0713
C    -0.336975    1.191427    0.489555   -0.014185   -0.003121    0.051245
C    -1.258492    0.886285   -0.429021   -0.004337   -0.007975    0.032299
H    -0.101090    2.192163    0.829558   -0.165014    0.081049    0.045350
C    -1.297733   -0.594917   -0.713040    0.031320    0.038568   -0.036326
H    -1.884528    1.606376   -0.941996   -0.023497   -0.082352   -0.067886
C    -0.480819   -1.190085    0.453282    0.055826    0.009578   -0.030341
H    -0.828780   -0.807101   -1.680917    0.000057    0.134651   -0.096226
H    -2.314469   -0.991391   -0.759955    0.027695    0.072427   -0.025975
C     0.391198   -0.030994    0.951514    0.005915    0.019560   -0.018658
H     0.104875   -2.062872    0.165197    0.120662    0.083735   -0.003361
H    -1.161289   -1.489082    1.255329   -0.026001   -0.013778   -0.073659
H     1.421172   -0.079015    0.421973    0.167922    0.086592   -0.273575
H     0.641845   -0.059229    2.013469    0.284502    0.033510   -0.075819
O     2.494821   -0.062117   -0.586411   -0.025983    0.023222    0.095581
H     2.060618    0.616781   -1.125106   -0.862099   -1.438967   -0.924695
