
                                 *****************
                                 * O   R   C   A *
                                 *****************

                                            #,                                       
                                            ###                                      
                                            ####                                     
                                            #####                                    
                                            ######                                   
                                           ########,                                 
                                     ,,################,,,,,                         
                               ,,#################################,,                 
                          ,,##########################################,,             
                       ,#########################################, ''#####,          
                    ,#############################################,,   '####,        
                  ,##################################################,,,,####,       
                ,###########''''           ''''###############################       
              ,#####''   ,,,,##########,,,,          '''####'''          '####       
            ,##' ,,,,###########################,,,                        '##       
           ' ,,###''''                  '''############,,,                           
         ,,##''                                '''############,,,,        ,,,,,,###''
      ,#''                                            '''#######################'''  
     '                                                          ''''####''''         
             ,#######,   #######,   ,#######,      ##                                
            ,#'     '#,  ##    ##  ,#'     '#,    #''#        ,####,    ,#,          
            ##       ##  ##   ,#'  ##            #'  '#       #'       ,# #          
            ##       ##  #######   ##           ,######,      #####,      #          
            '#,     ,#'  ##    ##  '#,     ,#' ,#      #,     #,   #      #          
             '#######'   ##     ##  '#######'  #'      '#     '####' #    #          



                #########################################################
                #                        -***-                          #
                #          Department of theory and spectroscopy        #
                #                                                       #
                #                      Frank Neese                      #
                #                                                       #
                #     Directorship, Architecture, Infrastructure        #
                #                    SHARK, DRIVERS                     #
                #        Core code/Algorithms in most modules           #
                #                                                       #
                #        Max Planck Institute fuer Kohlenforschung      #
                #                Kaiser Wilhelm Platz 1                 #
                #                 D-45470 Muelheim/Ruhr                 #
                #                      Germany                          #
                #                                                       #
                #                  All rights reserved                  #
                #                        -***-                          #
                #########################################################


                         Program Version 6.1.1  -  RELEASE   -
                                (GIT: $487d211c$)
                          ($2025-11-21 10:33:24 +0100$)


 With contributions from (in alphabetic order):
[Max-Planck-Institut fuer Kohlenforschung]                               
  Daniel Aravena         : Magnetic Suceptibility                        
  Michael Atanasov       : Ab Initio Ligand Field Theory (pilot matlab implementation)
  Alexander A. Auer      : GIAO ZORA, VPT2 properties, NMR spectrum      
  Ute Becker             : All parallelization in ORCA, NUMFREQ, NUMCALC 
  Giovanni Bistoni       : ED, misc. LED, open-shell LED, HFLD           
  Dmytro Bykov           : pre 5.0 version of the SCF Hessian            
  Marcos Casanova-Páez   : Triplet and SCS-CIS(D). UHF-(DLPNO)-IP/EA/STEOM-CCSD. UHF-CVS-IP/STEOM-CCSD   
  Vijay G. Chilkuri      : MRCI spin determinant printing, contributions to CSF-ICE 
  Pauline Colinet        : FMM embedding                                 
  Dipayan Datta          : RHF DLPNO-CCSD density                        
  Achintya Kumar Dutta   : EOM-CC, STEOM-CC                              
  Nicolas Foglia         : Exact transition moments, OPA infrastructure, MCD improvements    
  Dmitry Ganyushin       : Spin-Orbit,Spin-Spin,Magnetic field MRCI      
  Miquel Garcia-Rates    : C-PCM and meta-GGA Hessian, CCSD/C-PCM, Gaussian charge scheme 
  Tiago L. C. Gouveia    : GS-ROHF, GS-ROCIS                             
  Yang Guo               : DLPNO-NEVPT2, F12-NEVPT2, CIM, IAO-localization        
  Andreas Hansen         : Spin unrestricted coupled pair/coupled cluster methods 
  Ingolf Harden          : AUTO-CI MPn and infrastructure                
  Benjamin Helmich-Paris : MC-RPA, TRAH-(SCF,CASSCF), AVAS, COSX integrals, SCF dyn. polar., MC-PDFT, srDFT 
  Lee Huntington         : MR-EOM, pCC                                   
  Robert Izsak           : Overlap fitted RIJCOSX, COSX-SCS-MP3, EOM     
  Riya Kayal             : Wick's Theorem for AUTO-CI, AUTO-CI UHF-CCSDT 
  Emily Kempfer          : AUTO-CI RHF CISDT and CCSDT, approximate NEVPT4
  Christian Kollmar      : KDIIS, OOCD, Brueckner-CCSD(T), CCSD density, CASPT2, CASPT2-K, improved NEVPT2 
  Axel Koslowski         : Symmetry handling                             
  Simone Kossmann        : meta-GGA functionals, TD-DFT gradient, OOMP2, (MP2 Hessian; deprecated post 5.0) 
  Lucas Lang             : DCDCAS, Hyperfine gauge corrections, ICE-SOC+SSC
  Marvin Lechner         : AUTO-CI (C++ implementation), FIC-MRCC        
  Spencer Leger          : CASSCF response                               
  Dagmar Lenk            : GEPOL surface, SMD, ORCA-2-JSON               
  Dimitrios Liakos       : Extrapolation schemes; Compound Job, Property file
  Dimitrios Manganas     : Further ROCIS development; embedding schemes. LFT, Crystal Embedding 
  Dimitrios Pantazis     : SARC Basis sets                               
  Anastasios Papadopoulos: AUTO-CI, single reference methods and gradients 
  Taras Petrenko         : pre 6.0 DFT Hessian and TD-DFT gradient,  ECA, NRVS 
  Petra Pikulova         : Analytic Raman intensities                    
  Peter Pinski           : DLPNO-MP2, DLPNO-MP2 Gradient                 
  Shashank Vittal Rao    : ES-AILFT, MagRelax                            
  Christoph Reimann      : Effective Core Potentials                     
  Marius Retegan         : Local ZFS, SOC                                
  Christoph Riplinger    : Optimizer, TS searches, QM/MM, DLPNO-CCSD(T), (RO)-DLPNO pert. Triples 
  Michael Roemelt        : Original ROCIS implementation, recursive CI coupling coefficients
  Masaaki Saitow         : Open-shell DLPNO-CCSD energy and density      
  Barbara Sandhoefer     : DKH picture change effects                    
  Yorick L. A. Schmerwitz: GMF and freeze-and-release deltaSCF, NEB S-IDPP initial path                    
  Kantharuban Sivalingam : CASSCF convergence/infrastructure, NEVPT2, NEVPT3, NEVPT4(SD), FIC-MRCI and CEPA variants
  Bernardo de Souza      : ESD, SOC TD-DFT                               
  Georgi L. Stoychev     : AutoAux, RI-MP2 NMR, DLPNO-MP2 response, X2C  
  Van Anh Tran           : RI-MP2 g-tensors                              
  Willem Van den Heuvel  : Paramagnetic NMR                              
  Zikuan Wang            : NOTCH, Electric field optimization            
  Frank Wennmohs         : Technical directorship and infrastructure     
  Hang Xu                : AUTO-CI-Response properties                   
                                                                         
[FACCTs GmbH]                                                            
  Markus Bursch, Nicolas Foglia, Miquel Garcia-Rates, Ingolf Harden, Hagen Neugebauer, Anastasios Papadopoulos, 
  Christoph Riplinger, Bernardo de Souza, Georgi L. Stoychev                                                    
                                                                 
  APM, various basis sets, CI-OPT, improved COSX, DLPNO-Multilevel,           
  DOCKER, DRACO, updates on ESD, Fragmentator, GOAT, IRC, LR-CPCM, L-BFGS, MBIS, meta-GGA TD-DFT gradient, ML-optimized integration grids, 
  MM, NACMEs, nearIR, NEB, NEB-TS, NL-DFT gradient (VV10), 2- and 3-layer-ONIOM, interface openCOSMO-RS, QMMM,   
  Crystal-QMMM, RESP, rigid body optimization, SF, symmetry and pop. for TD-DFT, various functionals, SOLVATOR                                   
                                                                         
[Other institutions]                                                     
  V. Asgeirsson          : NEB                                           
  Christoph Bannwarth    : sTDA-DFT, sTD-DFT, PBEh-3c, B97-3c, D3        
  Giovanni Bistoni       : ETS/NOCV, ADLD/ADEX, COVALED                  
  Martin Brehm           : Molecular dynamics                            
  Ronald Cardenas        : ETS/NOCV                                      
  Martina Colucci        : COVALED                                       
  Sebastian Ehlert       : rSCAN, r2SCAN, r2SCAN-3c, D4, dhf basis sets  
  Marvin Friede          : D4 for Fr, Ra, Ac-Lr                          
  Lars Goerigk           : TD-DFT with DH, B97 family of functionals     
  Stefan Grimme          : VdW corrections, initial TS optimization, DFT functionals, gCP, sTDA/sTD-DF 
  Waldemar Hujo          : DFT-NL                                        
  H. Jonsson             : NEB                                           
  Holger Kruse           : gCP                                           
  Marcel Mueller         : wB97X-3c, vDZP basis set                      
  Hagen Neugebauer       : wr2SCAN, Native XTB                           
  Gianluca Regni         : ADLD/ADEX                                     
  Tobias Risthaus        : pre 6.0 range-separated hybrid DFT and stability analysis
  Lukas Wittmann         : regularized MP2, r2SCAN double-hybrids, wr2SCAN        
                                                                         
We gratefully acknowledge several colleagues who have allowed us to      
interface, adapt or use parts of their codes:                            
  Ed Valeev, F. Pavosevic, A. Kumar             : LibInt (2-el integral package), F12 methods 
  Garnet Chan, S. Sharma, J. Yang, R. Olivares  : DMRG                   
  Ulf Ekstrom                                   : XCFun DFT Library      
  Mihaly Kallay                                 : mrcc  (arbitrary order and MRCC methods)
  Frank Weinhold                                : gennbo (NPA and NBO analysis)           
  Simon Mueller                                 : openCOSMO-RS                            
  Christopher J. Cramer and Donald G. Truhlar   : smd solvation model                     
  S Lehtola, MJT Oliveira, MAL Marques          : LibXC Library                           
  Liviu Ungur et al                             : ANISO software                          


 Your calculation uses the libint2 library for the computation of 2-el integrals
 For citations please refer to: http://libint.valeyev.net

 Your ORCA version has been built with support for libXC version: 7.0.0
 For citations please refer to: https://libxc.gitlab.io

 This ORCA versions uses:
   CBLAS   interface :  Fast vector & matrix operations
   LAPACKE interface :  Fast linear algebra routines
   SCALAPACK package :  Parallel linear algebra routines
   Shared memory     :  Shared parallel matrices
   BLAS/LAPACK       :  OpenBLAS 0.3.29  USE64BITINT DYNAMIC_ARCH NO_AFFINITY Zen SINGLE_THREADED
        Core in use  :  Zen
   Copyright (c) 2011-2014, The OpenBLAS Project


  ***********************************
  * Starting time: Mon Mar  9 21:44:44 2026
  * Host name:     a2-24
  * Process ID:    93866
  * Working dir.:  /home/avcopan/proj/project-cyclopentane/code/oh-addition/calc/cyC5e1/RH+OH-c4_R-allyl+H2O_saddle
  ***********************************

NOTE: MaxCore=7500 MB was set to SCF,MP2,MDCI,CIPSI,MRCI,RASCI and CIS
      => If you want to overwrite this, your respective input block should be placed after the MaxCore statement


***************************************
The coordinates will be read from file: guess.xyz
***************************************


Your calculation utilizes the atom-pairwise dispersion correction
based on EEQ partial charges (D4)


Warning: RI is on but no J-basis has been assigned. Assigning Def2/J (nothing to worry about!)
================================================================================

----- Orbital basis set information -----
Your calculation utilizes the basis: def2-TZVPP
   F. Weigend and R. Ahlrichs, Phys. Chem. Chem. Phys. 7, 3297 (2005).

----- AuxJ basis set information -----
Your calculation utilizes the auxiliary basis: def2/J
   H-Rn: F. Weigend, Phys. Chem. Chem. Phys. 8, 1057 (2006).
   Fr-Lr: K. Eichkorn, F. Weigend, O. Treutler, R. Ahlrichs; Theor. Chem. Acc. 97, 119 (1997).

----- AuxC basis set information -----
Your calculation utilizes the auxiliary basis: def2-TZVPP/C
  H-La, Hf-Rn : A. Hellweg, C. Hattig, S. Hofener and W. Klopper, Theor. Chem. Acc. 117, 587 (2007).
        Ce-Lu : J. Chmela and M. E. Harding, Mol. Phys. (2018).

================================================================================
                                        WARNINGS
                       Please study these warnings very carefully!
================================================================================


WARNING: your system is open-shell and RHF/RKS was chosen
  ===> : WILL SWITCH to UHF/UKS


WARNING: The frozen-core approximation for MP2-gradient calculations is turned on by default.

WARNING: The environment variable RSH_COMMAND is not set!
  ===> : All Displacements for the Numerical Hessian or Gradient calculation
         will be started on localhost

WARNING: Geometry Optimization
  ===> : Switching off AutoStart
         For restart on a previous wavefunction, please use MOREAD

WARNING: The frozen-core approximation is turned on by default for 
         the MP2 part of double-hybrid DFT.

================================================================================
                                       INPUT FILE
================================================================================
NAME = opt.inp
|  1> % MaxCore 7500
|  2> ! PAL8
|  3> ! REVDSD-PBEP86-D4/2021 def2-TZVPP def2-TZVPP/c
|  4> ! OptTS
|  5> ! NumFreq
|  6> %geom 
|  7>    Calc_Hess true
|  8>    NumHess   true
|  9> end
| 10> * xyzfile 0 2 guess.xyz
| 11> 
| 12>                          ****END OF INPUT****
================================================================================

                       *****************************
                       * Geometry Optimization Run *
                       *****************************

Geometry optimization settings:
Update method            Update   .... Bofill
Choice of coordinates    CoordSys .... (2022) Redundant Internals
Initial Hessian          InHess   .... Almloef's Model
Max. no of cycles        MaxIter  .... 50

Convergence Tolerances:
Energy Change            TolE     ....  5.0000e-06 Eh
Max. Gradient            TolMAXG  ....  3.0000e-04 Eh/bohr
RMS Gradient             TolRMSG  ....  1.0000e-04 Eh/bohr
Max. Displacement        TolMAXD  ....  4.0000e-03 bohr
RMS Displacement         TolRMSD  ....  2.0000e-03 bohr
Strict Convergence                .... False

------------------------------------------------------------------------------
                        ORCA OPTIMIZATION COORDINATE SETUP
------------------------------------------------------------------------------

The optimization will be done in redundant internal coordinates (2022)
Making redundant internal coordinates   ...  (2022 redundants) done
Following TS mode number                ...     0
Evaluating the initial hessian          ...  (Is done on the fly) done
Evaluating the coordinates              ...  done
Calculating the B-matrix                .... done
Calculating the G-matrix                .... done
The number of degrees of freedom        ....   78

    -----------------------------------------------------------------
                    Redundant Internal Coordinates


    -----------------------------------------------------------------
         Definition                    Initial Value    d2E/dq (diagonal element)
    -----------------------------------------------------------------
      1. B(C   1,C   0)                  1.3364         0.000000   
      2. B(H   2,C   0)                  1.0829         0.000000   
      3. B(C   3,C   1)                  1.5087         0.000000   
      4. B(H   4,C   1)                  1.0833         0.000000   
      5. B(C   5,C   3)                  1.5433         0.000000   
      6. B(H   6,C   3)                  1.0962         0.000000   
      7. B(H   7,C   3)                  1.0923         0.000000   
      8. B(C   8,C   5)                  1.5337         0.000000   
      9. B(C   8,C   0)                  1.4960         0.000000   
     10. B(H   9,C   5)                  1.0899         0.000000   
     11. B(H  10,C   5)                  1.0935         0.000000   
     12. B(H  11,C   8)                  1.1591         0.000000   
     13. B(H  12,C   8)                  1.0915         0.000000   
     14. B(O  13,H  11)                  1.4730         0.000000   
     15. B(H  14,O  13)                  0.9693         0.000000   
     16. B(H  14,H  11)                  1.8129         0.000000   
     17. A(H   2,C   0,C   8)          123.5142         0.000000   
     18. A(C   1,C   0,H   2)          125.2391         0.000000   
     19. A(C   1,C   0,C   8)          111.1804         0.000000   
     20. A(C   0,C   1,H   4)          124.9011         0.000000   
     21. A(C   3,C   1,H   4)          123.2585         0.000000   
     22. A(C   0,C   1,C   3)          111.8075         0.000000   
     23. A(C   1,C   3,H   6)          110.1889         0.000000   
     24. A(C   5,C   3,H   6)          111.4786         0.000000   
     25. A(C   1,C   3,C   5)          102.8603         0.000000   
     26. A(H   6,C   3,H   7)          106.8587         0.000000   
     27. A(C   5,C   3,H   7)          112.6548         0.000000   
     28. A(C   1,C   3,H   7)          112.8705         0.000000   
     29. A(C   3,C   5,H   9)          113.1741         0.000000   
     30. A(C   3,C   5,C   8)          104.7744         0.000000   
     31. A(C   8,C   5,H  10)          108.7958         0.000000   
     32. A(C   3,C   5,H  10)          109.2903         0.000000   
     33. A(C   8,C   5,H   9)          112.6778         0.000000   
     34. A(H   9,C   5,H  10)          108.0189         0.000000   
     35. A(C   0,C   8,C   5)          103.9152         0.000000   
     36. A(H  11,C   8,H  12)          103.8487         0.000000   
     37. A(C   5,C   8,H  12)          115.2828         0.000000   
     38. A(C   0,C   8,H  12)          115.6807         0.000000   
     39. A(C   5,C   8,H  11)          108.9964         0.000000   
     40. A(C   0,C   8,H  11)          108.9836         0.000000   
     41. A(O  13,H  11,H  14)           32.2541         0.000000   
     42. A(C   8,H  11,H  14)          133.4241         0.000000   
     43. A(C   8,H  11,O  13)          163.7234         0.000000   
     44. A(H  11,O  13,H  14)           93.5535         0.000000   
     45. A(H  11,H  14,O  13)           54.1924         0.000000   
     46. D(H   4,C   1,C   0,H   2)     -0.2621         0.000000   
     47. D(H   4,C   1,C   0,C   8)   -177.3793         0.000000   
     48. D(C   3,C   1,C   0,H   2)    177.7040         0.000000   
     49. D(C   3,C   1,C   0,C   8)      0.5868         0.000000   
     50. D(C   5,C   3,C   1,H   4)   -168.1996         0.000000   
     51. D(H   6,C   3,C   1,C   0)   -105.1589         0.000000   
     52. D(H   7,C   3,C   1,C   0)    135.4701         0.000000   
     53. D(H   6,C   3,C   1,H   4)     72.8463         0.000000   
     54. D(C   5,C   3,C   1,C   0)     13.7952         0.000000   
     55. D(H   9,C   5,C   3,H   6)    -26.9788         0.000000   
     56. D(C   8,C   5,C   3,H   7)   -143.7145         0.000000   
     57. D(C   8,C   5,C   3,H   6)     96.1569         0.000000   
     58. D(C   8,C   5,C   3,C   1)    -21.8933         0.000000   
     59. D(H   9,C   5,C   3,H   7)     93.1499         0.000000   
     60. D(H   9,C   5,C   3,C   1)   -145.0290         0.000000   
     61. D(H  11,C   8,C   5,H  10)    149.5730         0.000000   
     62. D(H  11,C   8,C   5,H   9)     29.8142         0.000000   
     63. D(H  11,C   8,C   5,C   3)    -93.6411         0.000000   
     64. D(C   0,C   8,C   5,H   9)    145.9007         0.000000   
     65. D(C   0,C   8,C   5,C   3)     22.4454         0.000000   
     66. D(H  12,C   8,C   0,C   1)   -142.2648         0.000000   
     67. D(C   0,C   8,C   5,H  10)    -94.3404         0.000000   
     68. D(H  11,C   8,C   0,H   2)    -75.9466         0.000000   
     69. D(H  11,C   8,C   0,C   1)    101.2294         0.000000   
     70. D(C   5,C   8,C   0,H   2)    167.9579         0.000000   
     71. D(C   5,C   8,C   0,C   1)    -14.8661         0.000000   
     72. D(H  14,H  11,C   8,C   0)    -23.6570         0.000000   
     73. D(O  13,H  11,C   8,H  12)   -171.5708         0.000000   
     74. D(O  13,H  11,C   8,C   5)     65.0569         0.000000   
     75. D(H  14,H  11,C   8,C   5)     89.1354         0.000000   
     76. D(O  13,H  11,C   8,C   0)    -47.7354         0.000000   
     77. D(H  14,O  13,H  11,C   8)     33.7269         0.000000   
     78. D(O  13,H  14,H  11,C   8)   -167.6275         0.000000   
    -----------------------------------------------------------------

Number of atoms                         .... 15
Number of degrees of freedom            .... 78


         *************************************************************
         *                GEOMETRY OPTIMIZATION CYCLE   1            *
         *************************************************************
---------------------------------
CARTESIAN COORDINATES (ANGSTROEM)
---------------------------------
  C     -0.336975    1.191427    0.489555
  C     -1.258492    0.886285   -0.429021
  H     -0.101090    2.192163    0.829558
  C     -1.297733   -0.594917   -0.713040
  H     -1.884528    1.606376   -0.941996
  C     -0.480819   -1.190085    0.453282
  H     -0.828780   -0.807101   -1.680917
  H     -2.314469   -0.991391   -0.759955
  C      0.391198   -0.030994    0.951514
  H      0.104875   -2.062872    0.165197
  H     -1.161289   -1.489082    1.255329
  H      1.421172   -0.079015    0.421973
  H      0.641845   -0.059229    2.013469
  O      2.494821   -0.062117   -0.586411
  H      2.060618    0.616781   -1.125106

----------------------------
CARTESIAN COORDINATES (A.U.)
----------------------------
  NO LB      ZA    FRAG     MASS         X           Y           Z
   0 C     6.0000    0    12.011   -0.636790    2.251471    0.925125
   1 C     6.0000    0    12.011   -2.378205    1.674836   -0.810732
   2 H     1.0000    0     1.008   -0.191032    4.142588    1.567637
   3 C     6.0000    0    12.011   -2.452360   -1.124230   -1.347450
   4 H     1.0000    0     1.008   -3.561242    3.035611   -1.780114
   5 C     6.0000    0    12.011   -0.908616   -2.248935    0.856579
   6 H     1.0000    0     1.008   -1.566167   -1.525200   -3.176473
   7 H     1.0000    0     1.008   -4.373713   -1.873457   -1.436107
   8 C     6.0000    0    12.011    0.739257   -0.058570    1.798101
   9 H     1.0000    0     1.008    0.198185   -3.898263    0.312177
  10 H     1.0000    0     1.008   -2.194518   -2.813957    2.372228
  11 H     1.0000    0     1.008    2.685626   -0.149317    0.797413
  12 H     1.0000    0     1.008    1.212911   -0.111927    3.804905
  13 O     8.0000    0    15.999    4.714528   -0.117384   -1.108156
  14 H     1.0000    0     1.008    3.894004    1.165547   -2.126142

--------------------------------
INTERNAL COORDINATES (ANGSTROEM)
--------------------------------
 C      0   0   0     0.000000000000     0.00000000     0.00000000
 C      1   0   0     1.336445692585     0.00000000     0.00000000
 H      1   2   0     1.082920271733   125.23912642     0.00000000
 C      2   1   3     1.508696793012   111.80751311   177.70398032
 H      2   1   3     1.083326115351   124.90110045   359.73789237
 C      4   2   1     1.543334195599   102.86034741    13.79520802
 H      4   2   1     1.096232116476   110.18886001   254.84113757
 H      4   2   1     1.092311651314   112.87045518   135.47012235
 C      1   2   3     1.495979657900   111.18038598   182.88279123
 H      6   4   2     1.089856676921   113.17410464   214.97097461
 H      6   4   2     1.093488919522   109.29031372    94.55191361
 H      9   1   2     1.159122999426   108.98363814   101.22942915
 H      9   1   2     1.091498765853   115.68070817   217.73516047
 O     12   9   1     1.473039717408   163.72337511   312.26456829
 H     14  12   9     0.969343614328    93.55353902    33.72692554

---------------------------
INTERNAL COORDINATES (A.U.)
---------------------------
 C      0   0   0     0.000000000000     0.00000000     0.00000000
 C      1   0   0     2.525516351844     0.00000000     0.00000000
 H      1   2   0     2.046422738447   125.23912642     0.00000000
 C      2   1   3     2.851023757919   111.80751311   177.70398032
 H      2   1   3     2.047189671739   124.90110045   359.73789237
 C      4   2   1     2.916478962797   102.86034741    13.79520802
 H      4   2   1     2.071578479349   110.18886001   254.84113757
 H      4   2   1     2.064169873875   112.87045518   135.47012235
 C      1   2   3     2.826991855348   111.18038598   182.88279123
 H      6   4   2     2.059530644607   113.17410464   214.97097461
 H      6   4   2     2.066394588375   109.29031372    94.55191361
 H      9   1   2     2.190425024444   108.98363814   101.22942915
 H      9   1   2     2.062633742976   115.68070817   217.73516047
 O     12   9   1     2.783641650290   163.72337511   312.26456829
 H     14  12   9     1.831793960745    93.55353902    33.72692554

---------------------
BASIS SET INFORMATION
---------------------
There are 3 groups of distinct atoms

 Group   1 Type C   : 11s6p2d1f contracted to 5s3p2d1f pattern {62111/411/11/1}
 Group   2 Type H   : 5s2p1d contracted to 3s2p1d pattern {311/11/1}
 Group   3 Type O   : 11s6p2d1f contracted to 5s3p2d1f pattern {62111/411/11/1}

Atom   0C    basis set group =>   1
Atom   1C    basis set group =>   1
Atom   2H    basis set group =>   2
Atom   3C    basis set group =>   1
Atom   4H    basis set group =>   2
Atom   5C    basis set group =>   1
Atom   6H    basis set group =>   2
Atom   7H    basis set group =>   2
Atom   8C    basis set group =>   1
Atom   9H    basis set group =>   2
Atom  10H    basis set group =>   2
Atom  11H    basis set group =>   2
Atom  12H    basis set group =>   2
Atom  13O    basis set group =>   3
Atom  14H    basis set group =>   2
---------------------------------
AUXILIARY/J BASIS SET INFORMATION
---------------------------------
There are 3 groups of distinct atoms

 Group   1 Type C   : 12s5p4d2f1g contracted to 6s4p3d1f1g pattern {711111/2111/211/2/1}
 Group   2 Type H   : 5s2p1d contracted to 3s1p1d pattern {311/2/1}
 Group   3 Type O   : 12s5p4d2f1g contracted to 6s4p3d1f1g pattern {711111/2111/211/2/1}

Atom   0C    basis set group =>   1
Atom   1C    basis set group =>   1
Atom   2H    basis set group =>   2
Atom   3C    basis set group =>   1
Atom   4H    basis set group =>   2
Atom   5C    basis set group =>   1
Atom   6H    basis set group =>   2
Atom   7H    basis set group =>   2
Atom   8C    basis set group =>   1
Atom   9H    basis set group =>   2
Atom  10H    basis set group =>   2
Atom  11H    basis set group =>   2
Atom  12H    basis set group =>   2
Atom  13O    basis set group =>   3
Atom  14H    basis set group =>   2
---------------------------------
AUXILIARY/C BASIS SET INFORMATION
---------------------------------
There are 3 groups of distinct atoms

 Group   1 Type C   : 8s6p5d3f1g contracted to 8s6p4d3f1g pattern {11111111/111111/2111/111/1}
 Group   2 Type H   : 4s3p2d1f contracted to 4s3p2d1f pattern {1111/111/11/1}
 Group   3 Type O   : 8s6p5d3f1g contracted to 8s6p4d3f1g pattern {11111111/111111/2111/111/1}

Atom   0C    basis set group =>   1
Atom   1C    basis set group =>   1
Atom   2H    basis set group =>   2
Atom   3C    basis set group =>   1
Atom   4H    basis set group =>   2
Atom   5C    basis set group =>   1
Atom   6H    basis set group =>   2
Atom   7H    basis set group =>   2
Atom   8C    basis set group =>   1
Atom   9H    basis set group =>   2
Atom  10H    basis set group =>   2
Atom  11H    basis set group =>   2
Atom  12H    basis set group =>   2
Atom  13O    basis set group =>   3
Atom  14H    basis set group =>   2


           ************************************************************
           *        Program running with 8 parallel MPI-processes     *
           *              working on a common directory               *
           ************************************************************
------------------------------------------------------------------------------
                             ORCA STARTUP CALCULATIONS
                           -- RI-GTO INTEGRALS CHOSEN --
------------------------------------------------------------------------------
------------------------------------------------------------------------------
                   ___                                                        
                  /   \      - P O W E R E D   B Y -                         
                 /     \                                                     
                 |  |  |   _    _      __       _____    __    __             
                 |  |  |  | |  | |    /  \     |  _  \  |  |  /  |          
                  \  \/   | |  | |   /    \    | | | |  |  | /  /          
                 / \  \   | |__| |  /  /\  \   | |_| |  |  |/  /          
                |  |  |   |  __  | /  /__\  \  |    /   |      \           
                |  |  |   | |  | | |   __   |  |    \   |  |\   \          
                \     /   | |  | | |  |  |  |  | |\  \  |  | \   \       
                 \___/    |_|  |_| |__|  |__|  |_| \__\ |__|  \__/        
                                                                              
                      - O R C A' S   B I G   F R I E N D -                    
                                      &                                       
                       - I N T E G R A L  F E E D E R -                       
                                                                              
 v1 FN, 2020, v2 2021, v3 2022-2024                                           
------------------------------------------------------------------------------


----------------------
SHARK INTEGRAL PACKAGE
----------------------

Number of atoms                             ...     15
Number of basis functions                   ...    312
Number of shells                            ...    120
Maximum angular momentum                    ...      3
Integral batch strategy                     ... SHARK/LIBINT Hybrid
RI-J (if used) integral strategy            ... SPLIT-RIJ (Revised 2003 algorithm where possible)
Printlevel                                  ...      1
Contraction scheme used                     ... SEGMENTED contraction
Prescreening option                         ... SCHWARTZ
   Thresh                                   ... 2.500e-11
   Tcut                                     ... 2.500e-12
   Tpresel                                  ... 2.500e-12 
Coulomb Range Separation                    ... NOT USED
Exchange Range Separation                   ... NOT USED
Multipole approximations                    ... NOT USED
Finite Nucleus Model                        ... NOT USED
CABS basis                                  ... NOT available
Auxiliary Coulomb fitting basis             ... AVAILABLE
   # of basis functions in Aux-J            ...    393
   # of shells in Aux-J                     ...    135
   Maximum angular momentum in Aux-J        ...      4
Auxiliary J/K fitting basis                 ... NOT available
Auxiliary Correlation fitting basis         ... AVAILABLE
   # of basis functions in Aux-C            ...    726
   # of shells in Aux-C                     ...    222
   Maximum angular momentum in Aux-C        ...      4
Auxiliary 'external' fitting basis          ... NOT available

Checking pre-screening integrals            ... done (  0.0 sec) Dimension = 120
   => SHARK Basis and OBASIS are compatible. Storing Pre-screening
Shell pair information
Shell pair cut-off parameter TPreSel        ...   2.5e-12
Total number of shell pairs                 ...      7260
Shell pairs after pre-screening             ...      6817
Total number of primitive shell pairs       ...     18687
Primitive shell pairs kept                  ...     14072
          la=0 lb=0:   1523 shell pairs
          la=1 lb=0:   1936 shell pairs
          la=1 lb=1:    644 shell pairs
          la=2 lb=0:   1099 shell pairs
          la=2 lb=1:    715 shell pairs
          la=2 lb=2:    219 shell pairs
          la=3 lb=0:    325 shell pairs
          la=3 lb=1:    212 shell pairs
          la=3 lb=2:    123 shell pairs
          la=3 lb=3:     21 shell pairs

Checking whether 4 symmetric matrices of dimension 312 fit in memory
:Max Core in MB      =   7500.00
 MB in use           =     11.80
 MB left             =   7488.20
 MB needed           =      1.49
 Data fit in memory  = YES
Calculating RI/J V-Matrix + Cholesky decomp.... done (  0.2 sec)
Calculating RI/C V-Matrix + Cholesky decomp.... done (  0.2 sec)
Calculating Nuclear repulsion               ... done (  0.0 sec) ENN=    231.143973098753 Eh

Diagonalization of the overlap matrix:
Smallest eigenvalue                        ... 7.741e-05
Time for diagonalization                   ...    0.032 sec
Threshold for overlap eigenvalues          ... 1.000e-07
Number of eigenvalues below threshold      ... 0
Time for construction of square roots      ...    0.104 sec
Total time needed                          ...    0.165 sec

-------------------
DFT GRID GENERATION
-------------------

General Integration Accuracy     IntAcc      ... 4.388
Radial Grid Type                 RadialGrid  ... OptM3 with GC (2021)
Angular Grid (max. ang.)         AngularGrid ... 4 (Lebedev-302)
Angular grid pruning method      GridPruning ... 4 (adaptive)
Weight generation scheme         WeightScheme... mBecke (2022)
Basis function cutoff            BFCut       ... 1.0000e-11
Integration weight cutoff        WCut        ... 1.0000e-14
Partially contracted basis set               ... off
Rotationally invariant grid construction     ... off
Angular grids for H and He will be reduced by one unit

Total number of grid points                  ...    65127
Total number of batches                      ...     1025
Average number of points per batch           ...       63
Average number of grid points per atom       ...     4342

--------------------
COSX GRID GENERATION
--------------------

GRIDX 1
-------
General Integration Accuracy     IntAcc      ... 3.816
Radial Grid Type                 RadialGrid  ... OptM3 with GC (2021)
Angular Grid (max. ang.)         AngularGrid ... 1 (Lebedev-50)
Angular grid pruning method      GridPruning ... 4 (adaptive)
Weight generation scheme         WeightScheme... mBecke (2022)
Basis function cutoff            BFCut       ... 1.0000e-11
Integration weight cutoff        WCut        ... 1.0000e-14
Partially contracted basis set               ... on
Rotationally invariant grid construction     ... off
Angular grids for H and He will be reduced by one unit

Total number of grid points                  ...     8363
Total number of batches                      ...       75
Average number of points per batch           ...      111
Average number of grid points per atom       ...      558
UseSFitting                                  ... on

GRIDX 2
-------
General Integration Accuracy     IntAcc      ... 4.020
Radial Grid Type                 RadialGrid  ... OptM3 with GC (2021)
Angular Grid (max. ang.)         AngularGrid ... 2 (Lebedev-110)
Angular grid pruning method      GridPruning ... 4 (adaptive)
Weight generation scheme         WeightScheme... mBecke (2022)
Basis function cutoff            BFCut       ... 1.0000e-11
Integration weight cutoff        WCut        ... 1.0000e-14
Partially contracted basis set               ... on
Rotationally invariant grid construction     ... off
Angular grids for H and He will be reduced by one unit

Total number of grid points                  ...    17677
Total number of batches                      ...      145
Average number of points per batch           ...      121
Average number of grid points per atom       ...     1178
UseSFitting                                  ... on

GRIDX 3
-------
General Integration Accuracy     IntAcc      ... 4.338
Radial Grid Type                 RadialGrid  ... OptM3 with GC (2021)
Angular Grid (max. ang.)         AngularGrid ... 3 (Lebedev-194)
Angular grid pruning method      GridPruning ... 4 (adaptive)
Weight generation scheme         WeightScheme... mBecke (2022)
Basis function cutoff            BFCut       ... 1.0000e-11
Integration weight cutoff        WCut        ... 1.0000e-14
Partially contracted basis set               ... on
Rotationally invariant grid construction     ... off
Angular grids for H and He will be reduced by one unit

Total number of grid points                  ...    38723
Total number of batches                      ...      310
Average number of points per batch           ...      124
Average number of grid points per atom       ...     2582
UseSFitting                                  ... on
Grids setup in   3.1 sec
Initializing property integral containers    ... done (  0.1 sec)

SHARK setup successfully completed in   4.6 seconds

Maximum memory used throughout the entire STARTUP-calculation: 24.7 MB


           ************************************************************
           *        Program running with 8 parallel MPI-processes     *
           *              working on a common directory               *
           ************************************************************
-------------------------------------------------------------------------------
                                 ORCA GUESS
                   Start orbitals & Density for SCF / CASSCF
-------------------------------------------------------------------------------

------------
SCF SETTINGS
------------
Hamiltonian:
 Density Functional     Method          .... DFT(GTOs)
 Exchange Functional    Exchange        .... PBE
   PBE kappa parameter   XKappa         ....  0.804000
   PBE mue parameter    XMuePBE         ....  0.219520
 Correlation Functional Correlation     .... P86
 LDA part of GGA corr.  LDAOpt          .... VWN-5
 Gradients option       PostSCFGGA      .... off
 Hybrid DFT is turned on
   Fraction HF Exchange ScalHFX         ....  0.690000
   Scaling of DF-GGA-X  ScalDFX         ....  0.310000
   Scaling of DF-GGA-C  ScalDFC         ....  0.422400
   Scaling of DF-LDA-C  ScalLDAC        ....  0.422400
   Perturbative correction              ....  1.000000
 RI-approximation to the Coulomb term is turned on
   Number of AuxJ basis functions       .... 393
   RIJ-COSX (HFX calculated with COS-X)).... on


General Settings:
 Integral files         IntName         .... opt
 Hartree-Fock type      HFTyp           .... UHF
 Total Charge           Charge          ....    0
 Multiplicity           Mult            ....    2
 Number of Electrons    NEL             ....   47
 Basis Dimension        Dim             ....  312
 Nuclear Repulsion      ENuc            ....    231.1439730988 Eh

Convergence Acceleration:
 AO-DIIS                CNVDIIS         .... on
   Start iteration      DIISMaxIt       ....    12
   Startup error        DIISStart       ....  0.200000
   # of expansion vecs  DIISMaxEq       ....     5
   Bias factor          DIISBfac        ....   1.050
   Max. coefficient     DIISMaxC        ....  10.000
 MO-DIIS                CNVKDIIS        .... off
 Trust-Rad. Augm. Hess. CNVTRAH         .... auto
   Auto Start mean grad. ratio tolernc. ....  1.125000
   Auto Start start iteration           ....    50
   Auto Start num. interpolation iter.  ....    10
   Max. Number of Micro iterations      ....    24
   Max. Number of Macro iterations      .... Maxiter - #DIIS iter
   Number of Davidson start vectors     ....     2
   Converg. threshold    (grad. norm)   ....   1.000e-05
   Grad. Scal. Fac. for Micro threshold ....   0.100
   Minimum threshold for Micro iter.    ....   1.000e-02
   NR start threshold (gradient norm)   ....   1.000e-04
   Initial trust radius                 ....   0.400
   Minimum AH scaling param. (alpha)    ....   1.000
   Maximum AH scaling param. (alpha)    .... 1000.000
   Quad. conv. algorithm                .... NR
   White noise on init. David. guess    .... on
   Maximum white noise                  ....   0.010
   Pseudo random numbers                .... off
   Inactive MOs                         .... canonical
   Orbital update algorithm             .... Taylor
   Preconditioner                       .... Diag
   Full preconditioner red. dimension   ....   250
 SOSCF                 CNVSOSCF           .... on
   Start iteration     SOSCFMaxIt         ....   150
   Startup grad/error  SOSCFStart         ....  0.003300
   Hessian update      SOSCFHessUp        .... L-BFGS
   Autom. constraints  SOSCFAutoConstrain .... off
 Level Shifting         CNVShift        .... on
   Level shift para.    LevelShift      ....    0.2500
   Turn off err/grad.   ShiftErr        ....    0.0010
 Zerner damping         CNVZerner       .... off
 Static damping         CNVDamp         .... on
   Fraction old density DampFac         ....    0.7000
   Max. Damping (<1)    DampMax         ....    0.9800
   Min. Damping (>=0)   DampMin         ....    0.0000
   Turn off err/grad.   DampErr         ....    0.1000

SCF Procedure:
 Maximum # iterations   MaxIter         ....   125
 SCF integral mode      SCFMode         .... Direct
   Integral package                     .... SHARK and LIBINT hybrid scheme
 Reset frequency        DirectResetFreq ....    20
 Integral Threshold     Thresh          ....  2.500e-11 Eh
 Primitive CutOff       TCut            ....  2.500e-12 Eh

Convergence Tolerance:
 Convergence Check Mode ConvCheckMode   .... Total+1el-Energy
 Convergence forced     ConvForced      .... 0
 Energy Change          TolE            ....  1.000e-08 Eh
 1-El. energy change                    ....  1.000e-05 Eh
 Orbital Gradient       TolG            ....  1.000e-05
 Orbital Rotation angle TolX            ....  1.000e-05
 DIIS Error             TolErr          ....  5.000e-07

------------------------------
INITIAL GUESS: MODEL POTENTIAL
------------------------------
Loading Hartree-Fock densities                     ... done
Calculating cut-offs                               ... done
Initializing the effective Hamiltonian             ... done
Setting up the integral package (SHARK)            ... done
Starting the Coulomb interaction                   ... done (   0.2 sec)
Making the grid                                    ... done (   0.4 sec)
Mapping shells                                     ... done
Starting the XC term evaluation                    ... done (   0.1 sec)
  promolecular density results
     # of electrons  =     46.990657522
     EX              =    -36.319110515
     EC              =      0.020221268
     EX+EC           =    -36.298889246
Transforming the Hamiltonian                       ... done (   0.0 sec)
Diagonalizing the Hamiltonian                      ... done (   0.0 sec)
Back transforming the eigenvectors                 ... done (   0.1 sec)
Now organizing SCF variables                       ... done
                      ------------------
                      INITIAL GUESS DONE (   1.1 sec)
                      ------------------
             **** ENERGY FILE WAS UPDATED (opt.en.tmp) ****
Finished Guess after   6.3 sec
Maximum memory used throughout the entire GUESS-calculation: 17.8 MB


           ************************************************************
           *        Program running with 8 parallel MPI-processes     *
           *              working on a common directory               *
           ************************************************************

-------------------------------------------------------------------------------------------
                                      ORCA LEAN-SCF
                              memory conserving SCF solver
-------------------------------------------------------------------------------------------

----------------------------------------D-I-I-S--------------------------------------------
Iteration    Energy (Eh)           Delta-E    RMSDP     MaxDP     DIISErr   Damp  Time(sec)
-------------------------------------------------------------------------------------------
               ***  Starting incremental Fock matrix formation  ***
    1    -269.8253614685072534     0.00e+00  1.99e-03  4.88e-02  1.66e-01  0.700   6.2
    2    -269.9205732161045717    -9.52e-02  1.54e-03  3.89e-02  8.15e-02  0.700   4.0
                               ***Turning on AO-DIIS***
    3    -269.9691409689378361    -4.86e-02  6.14e-04  8.18e-03  3.34e-02  0.700   4.0
    4    -270.0001672589752388    -3.10e-02  1.63e-03  3.17e-02  2.43e-02  0.000   4.2
    5    -270.0796034886349162    -7.94e-02  8.19e-04  2.42e-02  1.44e-02  0.000   4.6
    6    -270.0858596407024379    -6.26e-03  8.87e-04  2.30e-02  9.96e-03  0.000   4.7
    7    -270.0909965512861390    -5.14e-03  5.21e-04  1.08e-02  8.21e-03  0.000   4.4
    8    -270.0936363945301082    -2.64e-03  4.40e-04  8.36e-03  4.60e-03  0.000   4.2
                              *** Initializing SOSCF ***
---------------------------------------S-O-S-C-F--------------------------------------
Iteration    Energy (Eh)           Delta-E    RMSDP     MaxDP     MaxGrad    Time(sec)
--------------------------------------------------------------------------------------
    9    -270.0949692440616445    -1.33e-03  2.60e-04  3.91e-03  3.30e-03     4.8
               *** Restarting incremental Fock matrix formation ***
   10    -270.0955180286208588    -5.49e-04  1.68e-04  2.71e-03  5.94e-03     6.1
   11    -270.0957174749283922    -1.99e-04  2.82e-04  3.86e-03  2.40e-03     5.3
   12    -270.0958257165345913    -1.08e-04  5.30e-05  6.83e-04  7.68e-04     6.0
   13    -270.0958492928987198    -2.36e-05  3.22e-05  3.48e-04  5.27e-04     6.0
   14    -270.0958568638618544    -7.57e-06  3.53e-05  4.26e-04  2.96e-04     5.8
   15    -270.0958619016931834    -5.04e-06  2.24e-05  3.37e-04  2.22e-04     5.6
   16    -270.0958642788262978    -2.38e-06  2.88e-05  4.36e-04  2.24e-04     6.3
   17    -270.0958666583238710    -2.38e-06  1.55e-05  2.38e-04  2.37e-04     6.0
   18    -270.0958675450328883    -8.87e-07  7.32e-06  8.19e-05  1.73e-04     5.6
   19    -270.0958677981521987    -2.53e-07  3.47e-06  5.94e-05  8.01e-05     5.1
   20    -270.0958678812778544    -8.31e-08  1.82e-06  2.88e-05  2.56e-05     5.0
   21    -270.0958678935255648    -1.22e-08  7.74e-07  1.12e-05  5.06e-06     4.8
   22    -270.0958679068738775    -1.33e-08  3.31e-07  5.84e-06  2.51e-06     4.7
   23    -270.0958678999691074     6.90e-09  2.13e-07  2.82e-06  1.25e-06     4.1
                 **** Energy Check signals convergence ****

               *****************************************************
               *                     SUCCESS                       *
               *           SCF CONVERGED AFTER  23 CYCLES          *
               *****************************************************

Recomputing exchange energy using gridx3       ... done (    6.421 sec)
Old exchange energy                            :    -25.777069589 Eh
New exchange energy                            :    -25.777073410 Eh
Exchange energy change after final integration :     -0.000003820 Eh
Total energy after final integration           :   -270.095871726 Eh
             **** ENERGY FILE WAS UPDATED (opt.en.tmp) ****

----------------
TOTAL SCF ENERGY
----------------

Total Energy       :       -270.09587172604699 Eh           -7349.68232 eV

Components:
Nuclear Repulsion  :        231.14397309875326 Eh            6289.74727 eV
Electronic Energy  :       -501.23984100460024 Eh          -13639.42949 eV
One Electron Energy:       -823.80159066920623 Eh          -22416.78093 eV
Two Electron Energy:        322.56174966460600 Eh            8777.35144 eV

Virial components:
Potential Energy   :       -539.52237489161621 Eh          -14681.15020 eV
Kinetic Energy     :        269.42650316556916 Eh            7331.46788 eV
Virial Ratio       :          2.00248441987931

DFT components:
N(Alpha)           :       24.000004982598 electrons
N(Beta)            :       22.999998772556 electrons
N(Total)           :       47.000003755154 electrons
E(X)               :      -11.523769636184 Eh       
E(C)               :       -0.711394674139 Eh       
E(XC)              :      -12.235164310323 Eh       

---------------
SCF CONVERGENCE
---------------

  Last Energy change         ...   -6.9048e-09  Tolerance :   1.0000e-08
  Last MAX-Density change    ...    2.8228e-06  Tolerance :   1.0000e-07
  Last RMS-Density change    ...    2.1259e-07  Tolerance :   5.0000e-09
  Last DIIS Error            ...    3.2971e-03  Tolerance :   5.0000e-07
  Last Orbital Gradient      ...    1.2461e-06  Tolerance :   1.0000e-05
  Last Orbital Rotation      ...    4.1011e-06  Tolerance :   1.0000e-05


----------------------
UHF SPIN CONTAMINATION
----------------------

Warning: in a DFT calculation there is little theoretical justification to 
         calculate <S**2> as in Hartree-Fock theory. We will do it anyways
         but you should keep in mind that the values have only limited relevance

Expectation value of <S**2>     :     0.778884
Ideal value S*(S+1) for S=0.5   :     0.750000
Deviation                       :     0.028884

----------------
ORBITAL ENERGIES
----------------
                 SPIN UP ORBITALS
  NO   OCC          E(Eh)            E(eV) 
   0   1.0000     -20.053738      -545.6900 
   1   1.0000     -10.820844      -294.4501 
   2   1.0000     -10.818833      -294.3954 
   3   1.0000     -10.814327      -294.2728 
   4   1.0000     -10.814029      -294.2647 
   5   1.0000     -10.809952      -294.1538 
   6   1.0000      -1.233550       -33.5666 
   7   1.0000      -1.033208       -28.1150 
   8   1.0000      -0.876435       -23.8490 
   9   1.0000      -0.870965       -23.7002 
  10   1.0000      -0.716275       -19.4908 
  11   1.0000      -0.662047       -18.0152 
  12   1.0000      -0.621417       -16.9096 
  13   1.0000      -0.607490       -16.5306 
  14   1.0000      -0.585969       -15.9450 
  15   1.0000      -0.554369       -15.0852 
  16   1.0000      -0.484435       -13.1821 
  17   1.0000      -0.472526       -12.8581 
  18   1.0000      -0.461796       -12.5661 
  19   1.0000      -0.447401       -12.1744 
  20   1.0000      -0.444107       -12.0848 
  21   1.0000      -0.431861       -11.7515 
  22   1.0000      -0.414806       -11.2875 
  23   1.0000      -0.306489        -8.3400 
  24   0.0000       0.087705         2.3866 
  25   0.0000       0.099623         2.7109 
  26   0.0000       0.121749         3.3129 
  27   0.0000       0.138645         3.7727 
  28   0.0000       0.142413         3.8752 
  29   0.0000       0.160802         4.3756 
  30   0.0000       0.169740         4.6189 
  31   0.0000       0.172194         4.6856 
  32   0.0000       0.200405         5.4533 
  33   0.0000       0.226762         6.1705 
  34   0.0000       0.248020         6.7490 

                 SPIN DOWN ORBITALS
  NO   OCC          E(Eh)            E(eV) 
   0   1.0000     -20.022556      -544.8414 
   1   1.0000     -10.817182      -294.3505 
   2   1.0000     -10.815570      -294.3066 
   3   1.0000     -10.814530      -294.2783 
   4   1.0000     -10.814148      -294.2679 
   5   1.0000     -10.810244      -294.1617 
   6   1.0000      -1.129035       -30.7226 
   7   1.0000      -1.028814       -27.9954 
   8   1.0000      -0.874600       -23.7991 
   9   1.0000      -0.861421       -23.4405 
  10   1.0000      -0.706641       -19.2287 
  11   1.0000      -0.656986       -17.8775 
  12   1.0000      -0.616673       -16.7805 
  13   1.0000      -0.576280       -15.6814 
  14   1.0000      -0.559327       -15.2201 
  15   1.0000      -0.488646       -13.2967 
  16   1.0000      -0.481409       -13.0998 
  17   1.0000      -0.445953       -12.1350 
  18   1.0000      -0.443571       -12.0702 
  19   1.0000      -0.434733       -11.8297 
  20   1.0000      -0.432596       -11.7715 
  21   1.0000      -0.423232       -11.5167 
  22   1.0000      -0.313526        -8.5315 
  23   0.0000      -0.009642        -0.2624 
  24   0.0000       0.092998         2.5306 
  25   0.0000       0.102890         2.7998 
  26   0.0000       0.123761         3.3677 
  27   0.0000       0.139597         3.7986 
  28   0.0000       0.142853         3.8872 
  29   0.0000       0.161833         4.4037 
  30   0.0000       0.170676         4.6443 
  31   0.0000       0.174012         4.7351 
  32   0.0000       0.201309         5.4779 
  33   0.0000       0.230236         6.2650 
*Only the first 10 virtual orbitals were printed.

                    ********************************
                    * MULLIKEN POPULATION ANALYSIS *
                    ********************************

--------------------------------------------
MULLIKEN ATOMIC CHARGES AND SPIN POPULATIONS
--------------------------------------------
   0 C :   -0.213670   -0.147029
   1 C :   -0.149811    0.167900
   2 H :    0.113208    0.009075
   3 C :   -0.089224   -0.018422
   4 H :    0.107959   -0.012062
   5 C :   -0.131788   -0.014561
   6 H :    0.069462    0.007733
   7 H :    0.074259    0.005791
   8 C :   -0.051772    0.256249
   9 H :    0.086691    0.004846
  10 H :    0.073030    0.010431
  11 H :    0.094948   -0.096207
  12 H :    0.083155   -0.002277
  13 O :   -0.302809    0.853127
  14 H :    0.236362   -0.024593
Sum of atomic charges         :   -0.0000000
Sum of atomic spin populations:    1.0000000

-----------------------------------------------------
MULLIKEN REDUCED ORBITAL CHARGES AND SPIN POPULATIONS
-----------------------------------------------------
CHARGE
  0 C s       :     3.196162  s :     3.196162
      pz      :     0.980893  p :     2.899093
      px      :     0.937945
      py      :     0.980254
      dz2     :     0.023895  d :     0.110491
      dxz     :     0.011489
      dyz     :     0.022855
      dx2y2   :     0.025991
      dxy     :     0.026262
      f0      :     0.000938  f :     0.007924
      f+1     :     0.001228
      f-1     :     0.000921
      f+2     :     0.001069
      f-2     :     0.001442
      f+3     :     0.000956
      f-3     :     0.001369

  1 C s       :     3.165094  s :     3.165094
      pz      :     0.958038  p :     2.868357
      px      :     0.965520
      py      :     0.944798
      dz2     :     0.021902  d :     0.108568
      dxz     :     0.012221
      dyz     :     0.025279
      dx2y2   :     0.023035
      dxy     :     0.026131
      f0      :     0.001064  f :     0.007792
      f+1     :     0.001256
      f-1     :     0.000724
      f+2     :     0.001359
      f-2     :     0.001181
      f+3     :     0.001245
      f-3     :     0.000964

  2 H s       :     0.848290  s :     0.848290
      pz      :     0.010316  p :     0.036574
      px      :     0.009224
      py      :     0.017034
      dz2     :     0.000306  d :     0.001927
      dxz     :     0.000104
      dyz     :     0.000508
      dx2y2   :     0.000473
      dxy     :     0.000536

  3 C s       :     3.095661  s :     3.095661
      pz      :     0.975220  p :     2.876210
      px      :     1.014704
      py      :     0.886286
      dz2     :     0.028902  d :     0.111257
      dxz     :     0.015710
      dyz     :     0.019724
      dx2y2   :     0.023819
      dxy     :     0.023102
      f0      :     0.000666  f :     0.006096
      f+1     :     0.000985
      f-1     :     0.000955
      f+2     :     0.001031
      f-2     :     0.000583
      f+3     :     0.000892
      f-3     :     0.000984

  4 H s       :     0.853126  s :     0.853126
      pz      :     0.010902  p :     0.036965
      px      :     0.011958
      py      :     0.014105
      dz2     :     0.000428  d :     0.001950
      dxz     :     0.000311
      dyz     :     0.000272
      dx2y2   :     0.000619
      dxy     :     0.000320

  5 C s       :     3.117796  s :     3.117796
      pz      :     0.959225  p :     2.902620
      px      :     0.970393
      py      :     0.973003
      dz2     :     0.018799  d :     0.105241
      dxz     :     0.026912
      dyz     :     0.018094
      dx2y2   :     0.014574
      dxy     :     0.026863
      f0      :     0.000736  f :     0.006131
      f+1     :     0.000936
      f-1     :     0.000753
      f+2     :     0.000725
      f-2     :     0.001219
      f+3     :     0.000973
      f-3     :     0.000787

  6 H s       :     0.888819  s :     0.888819
      pz      :     0.019743  p :     0.039627
      px      :     0.010434
      py      :     0.009451
      dz2     :     0.000678  d :     0.002092
      dxz     :     0.000497
      dyz     :     0.000592
      dx2y2   :     0.000186
      dxy     :     0.000140

  7 H s       :     0.883896  s :     0.883896
      pz      :     0.009248  p :     0.039760
      px      :     0.019473
      py      :     0.011038
      dz2     :     0.000144  d :     0.002086
      dxz     :     0.000667
      dyz     :     0.000083
      dx2y2   :     0.000602
      dxy     :     0.000591

  8 C s       :     3.092179  s :     3.092179
      pz      :     1.008502  p :     2.841174
      px      :     0.949056
      py      :     0.883616
      dz2     :     0.028807  d :     0.112129
      dxz     :     0.017844
      dyz     :     0.017068
      dx2y2   :     0.027525
      dxy     :     0.020885
      f0      :     0.000912  f :     0.006290
      f+1     :     0.000610
      f-1     :     0.000752
      f+2     :     0.000621
      f-2     :     0.001002
      f+3     :     0.001197
      f-3     :     0.001196

  9 H s       :     0.871687  s :     0.871687
      pz      :     0.009729  p :     0.039563
      px      :     0.012556
      py      :     0.017278
      dz2     :     0.000202  d :     0.002060
      dxz     :     0.000272
      dyz     :     0.000484
      dx2y2   :     0.000620
      dxy     :     0.000482

 10 H s       :     0.885887  s :     0.885887
      pz      :     0.015391  p :     0.038972
      px      :     0.012828
      py      :     0.010752
      dz2     :     0.000621  d :     0.002111
      dxz     :     0.000418
      dyz     :     0.000434
      dx2y2   :     0.000268
      dxy     :     0.000369

 11 H s       :     0.836445  s :     0.836445
      pz      :     0.017984  p :     0.065194
      px      :     0.034531
      py      :     0.012679
      dz2     :     0.000582  d :     0.003413
      dxz     :     0.001164
      dyz     :     0.000259
      dx2y2   :     0.000726
      dxy     :     0.000683

 12 H s       :     0.874454  s :     0.874454
      pz      :     0.020621  p :     0.040270
      px      :     0.010446
      py      :     0.009204
      dz2     :     0.000585  d :     0.002120
      dxz     :     0.000690
      dyz     :     0.000737
      dx2y2   :     0.000026
      dxy     :     0.000083

 13 O s       :     3.879807  s :     3.879807
      pz      :     1.383921  p :     4.408866
      px      :     1.356715
      py      :     1.668230
      dz2     :     0.000492  d :     0.013706
      dxz     :     0.004518
      dyz     :     0.003235
      dx2y2   :     0.002312
      dxy     :     0.003149
      f0      :     0.000042  f :     0.000430
      f+1     :     0.000022
      f-1     :     0.000058
      f+2     :     0.000095
      f-2     :     0.000108
      f+3     :     0.000072
      f-3     :     0.000033

 14 H s       :     0.675790  s :     0.675790
      pz      :     0.024550  p :     0.079717
      px      :     0.023562
      py      :     0.031605
      dz2     :     0.001456  d :     0.008131
      dxz     :     0.001462
      dyz     :     0.001696
      dx2y2   :     0.002019
      dxy     :     0.001498


SPIN
  0 C s       :    -0.017739  s :    -0.017739
      pz      :    -0.061223  p :    -0.133704
      px      :    -0.056408
      py      :    -0.016073
      dz2     :     0.002509  d :     0.003827
      dxz     :     0.000248
      dyz     :     0.000304
      dx2y2   :     0.001438
      dxy     :    -0.000672
      f0      :     0.000125  f :     0.000588
      f+1     :     0.000118
      f-1     :     0.000053
      f+2     :     0.000068
      f-2     :     0.000057
      f+3     :     0.000034
      f-3     :     0.000132

  1 C s       :     0.016951  s :     0.016951
      pz      :     0.075567  p :     0.152450
      px      :     0.064526
      py      :     0.012358
      dz2     :    -0.001148  d :    -0.001079
      dxz     :    -0.000370
      dyz     :     0.000282
      dx2y2   :    -0.000263
      dxy     :     0.000419
      f0      :    -0.000095  f :    -0.000423
      f+1     :    -0.000147
      f-1     :    -0.000018
      f+2     :    -0.000052
      f-2     :    -0.000068
      f+3     :    -0.000017
      f-3     :    -0.000027

  2 H s       :     0.010437  s :     0.010437
      pz      :    -0.000659  p :    -0.001276
      px      :    -0.000619
      py      :     0.000001
      dz2     :    -0.000010  d :    -0.000086
      dxz     :    -0.000001
      dyz     :    -0.000034
      dx2y2   :    -0.000003
      dxy     :    -0.000038

  3 C s       :    -0.004403  s :    -0.004403
      pz      :    -0.004593  p :    -0.016559
      px      :    -0.004372
      py      :    -0.007595
      dz2     :     0.000291  d :     0.002386
      dxz     :     0.000418
      dyz     :     0.000820
      dx2y2   :    -0.000093
      dxy     :     0.000949
      f0      :     0.000022  f :     0.000154
      f+1     :     0.000011
      f-1     :     0.000009
      f+2     :     0.000043
      f-2     :     0.000002
      f+3     :     0.000060
      f-3     :     0.000007

  4 H s       :    -0.013541  s :    -0.013541
      pz      :     0.000607  p :     0.001367
      px      :     0.000775
      py      :    -0.000016
      dz2     :     0.000038  d :     0.000112
      dxz     :    -0.000004
      dyz     :     0.000028
      dx2y2   :     0.000026
      dxy     :     0.000022

  5 C s       :    -0.002174  s :    -0.002174
      pz      :    -0.004922  p :    -0.014577
      px      :    -0.004042
      py      :    -0.005613
      dz2     :    -0.000239  d :     0.001979
      dxz     :     0.000437
      dyz     :     0.000982
      dx2y2   :     0.000672
      dxy     :     0.000128
      f0      :     0.000003  f :     0.000211
      f+1     :     0.000033
      f-1     :     0.000034
      f+2     :     0.000052
      f-2     :     0.000020
      f+3     :     0.000015
      f-3     :     0.000053

  6 H s       :     0.007645  s :     0.007645
      pz      :     0.000097  p :     0.000085
      px      :     0.000016
      py      :    -0.000029
      dz2     :     0.000003  d :     0.000003
      dxz     :     0.000001
      dyz     :    -0.000001
      dx2y2   :     0.000000
      dxy     :    -0.000000

  7 H s       :     0.005885  s :     0.005885
      pz      :    -0.000010  p :    -0.000096
      px      :    -0.000025
      py      :    -0.000062
      dz2     :     0.000001  d :     0.000003
      dxz     :     0.000001
      dyz     :    -0.000000
      dx2y2   :     0.000003
      dxy     :    -0.000002

  8 C s       :     0.029418  s :     0.029418
      pz      :     0.057901  p :     0.230226
      px      :     0.153462
      py      :     0.018864
      dz2     :    -0.000866  d :    -0.003130
      dxz     :    -0.000847
      dyz     :    -0.000135
      dx2y2   :    -0.000582
      dxy     :    -0.000700
      f0      :    -0.000017  f :    -0.000265
      f+1     :    -0.000087
      f-1     :    -0.000021
      f+2     :     0.000022
      f-2     :    -0.000101
      f+3     :    -0.000045
      f-3     :    -0.000016

  9 H s       :     0.004663  s :     0.004663
      pz      :     0.000015  p :     0.000178
      px      :    -0.000045
      py      :     0.000208
      dz2     :     0.000001  d :     0.000005
      dxz     :    -0.000001
      dyz     :     0.000001
      dx2y2   :     0.000001
      dxy     :     0.000003

 10 H s       :     0.010210  s :     0.010210
      pz      :     0.000126  p :     0.000211
      px      :     0.000021
      py      :     0.000064
      dz2     :     0.000007  d :     0.000009
      dxz     :     0.000002
      dyz     :     0.000000
      dx2y2   :    -0.000002
      dxy     :     0.000002

 11 H s       :    -0.111806  s :    -0.111806
      pz      :     0.006165  p :     0.015222
      px      :     0.009170
      py      :    -0.000113
      dz2     :     0.000037  d :     0.000377
      dxz     :     0.000194
      dyz     :     0.000022
      dx2y2   :     0.000113
      dxy     :     0.000010

 12 H s       :    -0.005010  s :    -0.005010
      pz      :     0.000542  p :     0.002530
      px      :     0.002003
      py      :    -0.000015
      dz2     :     0.000034  d :     0.000202
      dxz     :     0.000148
      dyz     :     0.000009
      dx2y2   :     0.000010
      dxy     :     0.000002

 13 O s       :     0.013582  s :     0.013582
      pz      :     0.353940  p :     0.839769
      px      :     0.475173
      py      :     0.010655
      dz2     :     0.000275  d :    -0.000135
      dxz     :    -0.000541
      dyz     :     0.000093
      dx2y2   :    -0.000215
      dxy     :     0.000253
      f0      :    -0.000033  f :    -0.000089
      f+1     :    -0.000010
      f-1     :     0.000026
      f+2     :     0.000029
      f-2     :    -0.000093
      f+3     :    -0.000022
      f-3     :     0.000014

 14 H s       :    -0.031472  s :    -0.031472
      pz      :     0.002764  p :     0.005879
      px      :     0.004475
      py      :    -0.001360
      dz2     :     0.000354  d :     0.001000
      dxz     :    -0.000111
      dyz     :     0.000283
      dx2y2   :     0.000068
      dxy     :     0.000406



                     *******************************
                     * LOEWDIN POPULATION ANALYSIS *
                     *******************************

-------------------------------------------
LOEWDIN ATOMIC CHARGES AND SPIN POPULATIONS
-------------------------------------------
   0 C :   -0.023897   -0.061391
   1 C :   -0.008250    0.088132
   2 H :    0.004706   -0.005063
   3 C :   -0.016789    0.005669
   4 H :    0.002922    0.005753
   5 C :    0.003266    0.003856
   6 H :    0.016083    0.004153
   7 H :    0.012008    0.002627
   8 C :    0.008961    0.124538
   9 H :    0.011871    0.001211
  10 H :    0.016444    0.004972
  11 H :   -0.046112    0.047835
  12 H :    0.011134    0.010664
  13 O :    0.157831    0.732142
  14 H :   -0.150178    0.034903

----------------------------------------------------
LOEWDIN REDUCED ORBITAL CHARGES AND SPIN POPULATIONS
----------------------------------------------------
CHARGE
  0 C s       :     2.734047  s :     2.734047
      pz      :     0.940453  p :     2.848135
      px      :     0.939515
      py      :     0.968166
      dz2     :     0.071128  d :     0.397898
      dxz     :     0.052408
      dyz     :     0.084892
      dx2y2   :     0.103051
      dxy     :     0.086419
      f0      :     0.004744  f :     0.043817
      f+1     :     0.004807
      f-1     :     0.005565
      f+2     :     0.005793
      f-2     :     0.008471
      f+3     :     0.005957
      f-3     :     0.008482

  1 C s       :     2.735931  s :     2.735931
      pz      :     0.934217  p :     2.834127
      px      :     0.943260
      py      :     0.956650
      dz2     :     0.062237  d :     0.394992
      dxz     :     0.052374
      dyz     :     0.098418
      dx2y2   :     0.078494
      dxy     :     0.103469
      f0      :     0.005218  f :     0.043200
      f+1     :     0.004847
      f-1     :     0.004445
      f+2     :     0.007808
      f-2     :     0.006677
      f+3     :     0.008371
      f-3     :     0.005834

  2 H s       :     0.817234  s :     0.817234
      pz      :     0.041764  p :     0.150694
      px      :     0.038673
      py      :     0.070257
      dz2     :     0.003964  d :     0.027366
      dxz     :     0.001207
      dyz     :     0.007451
      dx2y2   :     0.007543
      dxy     :     0.007200

  3 C s       :     2.689629  s :     2.689629
      pz      :     0.962539  p :     2.880314
      px      :     0.981471
      py      :     0.936305
      dz2     :     0.099031  d :     0.404367
      dxz     :     0.063926
      dyz     :     0.072340
      dx2y2   :     0.089274
      dxy     :     0.079795
      f0      :     0.004769  f :     0.042478
      f+1     :     0.006608
      f-1     :     0.006414
      f+2     :     0.007316
      f-2     :     0.005245
      f+3     :     0.006101
      f-3     :     0.006025

  4 H s       :     0.818772  s :     0.818772
      pz      :     0.045609  p :     0.150982
      px      :     0.049862
      py      :     0.055511
      dz2     :     0.004908  d :     0.027324
      dxz     :     0.004372
      dyz     :     0.005117
      dx2y2   :     0.006910
      dxy     :     0.006016

  5 C s       :     2.691884  s :     2.691884
      pz      :     0.955817  p :     2.867174
      px      :     0.961205
      py      :     0.950152
      dz2     :     0.070414  d :     0.395819
      dxz     :     0.096745
      dyz     :     0.069927
      dx2y2   :     0.059712
      dxy     :     0.099022
      f0      :     0.005789  f :     0.041856
      f+1     :     0.005395
      f-1     :     0.006307
      f+2     :     0.006045
      f-2     :     0.005548
      f+3     :     0.007001
      f-3     :     0.005772

  6 H s       :     0.806830  s :     0.806830
      pz      :     0.063327  p :     0.148627
      px      :     0.045186
      py      :     0.040114
      dz2     :     0.009416  d :     0.028460
      dxz     :     0.007677
      dyz     :     0.007219
      dx2y2   :     0.002462
      dxy     :     0.001686

  7 H s       :     0.811595  s :     0.811595
      pz      :     0.038941  p :     0.147806
      px      :     0.066414
      py      :     0.042451
      dz2     :     0.002505  d :     0.028591
      dxz     :     0.008637
      dyz     :     0.001020
      dx2y2   :     0.008459
      dxy     :     0.007970

  8 C s       :     2.697038  s :     2.697038
      pz      :     0.977024  p :     2.841059
      px      :     0.921691
      py      :     0.942344
      dz2     :     0.092964  d :     0.409802
      dxz     :     0.068374
      dyz     :     0.062982
      dx2y2   :     0.099063
      dxy     :     0.086420
      f0      :     0.004779  f :     0.043140
      f+1     :     0.003127
      f-1     :     0.005251
      f+2     :     0.007039
      f-2     :     0.008059
      f+3     :     0.006440
      f-3     :     0.008446

  9 H s       :     0.810998  s :     0.810998
      pz      :     0.041175  p :     0.148322
      px      :     0.048468
      py      :     0.058679
      dz2     :     0.003181  d :     0.028809
      dxz     :     0.003781
      dyz     :     0.006034
      dx2y2   :     0.008297
      dxy     :     0.007516

 10 H s       :     0.806344  s :     0.806344
      pz      :     0.055826  p :     0.148293
      px      :     0.051555
      py      :     0.040913
      dz2     :     0.007745  d :     0.028919
      dxz     :     0.007218
      dyz     :     0.005575
      dx2y2   :     0.003552
      dxy     :     0.004829

 11 H s       :     0.732593  s :     0.732593
      pz      :     0.091559  p :     0.278328
      px      :     0.142721
      py      :     0.044047
      dz2     :     0.006690  d :     0.035191
      dxz     :     0.011936
      dyz     :     0.002364
      dx2y2   :     0.006889
      dxy     :     0.007312

 12 H s       :     0.810069  s :     0.810069
      pz      :     0.070831  p :     0.150327
      px      :     0.041809
      py      :     0.037686
      dz2     :     0.009977  d :     0.028470
      dxz     :     0.009275
      dyz     :     0.008148
      dx2y2   :     0.000304
      dxy     :     0.000767

 13 O s       :     3.486494  s :     3.486494
      pz      :     1.353843  p :     4.326561
      px      :     1.320840
      py      :     1.651878
      dz2     :     0.000536  d :     0.027389
      dxz     :     0.010905
      dyz     :     0.007253
      dx2y2   :     0.003580
      dxy     :     0.005114
      f0      :     0.000173  f :     0.001725
      f+1     :     0.000209
      f-1     :     0.000174
      f+2     :     0.000407
      f-2     :     0.000395
      f+3     :     0.000241
      f-3     :     0.000127

 14 H s       :     0.705499  s :     0.705499
      pz      :     0.104932  p :     0.350521
      px      :     0.098760
      py      :     0.146829
      dz2     :     0.018559  d :     0.094157
      dxz     :     0.016427
      dyz     :     0.019013
      dx2y2   :     0.023524
      dxy     :     0.016634


SPIN
  0 C s       :    -0.004099  s :    -0.004099
      pz      :    -0.040219  p :    -0.081706
      px      :    -0.036686
      py      :    -0.004802
      dz2     :     0.010447  d :     0.021316
      dxz     :     0.000497
      dyz     :     0.002558
      dx2y2   :     0.005363
      dxy     :     0.002451
      f0      :     0.000666  f :     0.003098
      f+1     :     0.000489
      f-1     :     0.000361
      f+2     :     0.000288
      f-2     :     0.000119
      f+3     :     0.000275
      f-3     :     0.000900

  1 C s       :     0.003668  s :     0.003668
      pz      :     0.049046  p :     0.095246
      px      :     0.042313
      py      :     0.003888
      dz2     :    -0.005693  d :    -0.009232
      dxz     :    -0.000876
      dyz     :     0.000053
      dx2y2   :    -0.001895
      dxy     :    -0.000821
      f0      :    -0.000508  f :    -0.001550
      f+1     :    -0.000513
      f-1     :    -0.000092
      f+2     :    -0.000099
      f-2     :    -0.000100
      f+3     :    -0.000110
      f-3     :    -0.000127

  2 H s       :     0.002829  s :     0.002829
      pz      :    -0.003025  p :    -0.006621
      px      :    -0.002590
      py      :    -0.001006
      dz2     :    -0.000183  d :    -0.001271
      dxz     :    -0.000013
      dyz     :    -0.000496
      dx2y2   :    -0.000075
      dxy     :    -0.000505

  3 C s       :    -0.000597  s :    -0.000597
      pz      :    -0.000558  p :    -0.004026
      px      :    -0.000637
      py      :    -0.002831
      dz2     :     0.001538  d :     0.009318
      dxz     :     0.000987
      dyz     :     0.003034
      dx2y2   :     0.000297
      dxy     :     0.003462
      f0      :     0.000143  f :     0.000974
      f+1     :     0.000032
      f-1     :     0.000075
      f+2     :     0.000272
      f-2     :     0.000016
      f+3     :     0.000360
      f-3     :     0.000076

  4 H s       :    -0.003567  s :    -0.003567
      pz      :     0.003924  p :     0.007858
      px      :     0.003300
      py      :     0.000633
      dz2     :     0.000488  d :     0.001463
      dxz     :     0.000024
      dyz     :     0.000386
      dx2y2   :     0.000311
      dxy     :     0.000254

  5 C s       :    -0.000927  s :    -0.000927
      pz      :    -0.001563  p :    -0.005953
      px      :    -0.001915
      py      :    -0.002474
      dz2     :     0.000399  d :     0.009393
      dxz     :     0.000630
      dyz     :     0.003265
      dx2y2   :     0.002520
      dxy     :     0.002579
      f0      :     0.000029  f :     0.001342
      f+1     :     0.000240
      f-1     :     0.000219
      f+2     :     0.000294
      f-2     :     0.000070
      f+3     :     0.000082
      f-3     :     0.000407

  6 H s       :     0.004397  s :     0.004397
      pz      :    -0.000004  p :    -0.000174
      px      :    -0.000075
      py      :    -0.000095
      dz2     :     0.000001  d :    -0.000071
      dxz     :    -0.000017
      dyz     :    -0.000041
      dx2y2   :    -0.000005
      dxy     :    -0.000009

  7 H s       :     0.003005  s :     0.003005
      pz      :    -0.000124  p :    -0.000305
      px      :    -0.000032
      py      :    -0.000148
      dz2     :    -0.000004  d :    -0.000073
      dxz     :    -0.000005
      dyz     :    -0.000006
      dx2y2   :    -0.000019
      dxy     :    -0.000039

  8 C s       :     0.009579  s :     0.009579
      pz      :     0.036998  p :     0.135936
      px      :     0.091133
      py      :     0.007805
      dz2     :    -0.001517  d :    -0.019240
      dxz     :    -0.006698
      dyz     :    -0.002116
      dx2y2   :    -0.006110
      dxy     :    -0.002799
      f0      :    -0.000080  f :    -0.001736
      f+1     :    -0.000112
      f-1     :    -0.000164
      f+2     :    -0.000642
      f-2     :    -0.000185
      f+3     :    -0.000315
      f-3     :    -0.000237

  9 H s       :     0.001898  s :     0.001898
      pz      :    -0.000049  p :    -0.000567
      px      :    -0.000150
      py      :    -0.000368
      dz2     :    -0.000009  d :    -0.000120
      dxz     :    -0.000003
      dyz     :    -0.000025
      dx2y2   :    -0.000073
      dxy     :    -0.000010

 10 H s       :     0.004913  s :     0.004913
      pz      :    -0.000045  p :     0.000131
      px      :     0.000131
      py      :     0.000046
      dz2     :    -0.000006  d :    -0.000072
      dxz     :    -0.000019
      dyz     :    -0.000020
      dx2y2   :    -0.000010
      dxy     :    -0.000018

 11 H s       :    -0.034707  s :    -0.034707
      pz      :     0.029560  p :     0.076996
      px      :     0.047452
      py      :    -0.000016
      dz2     :     0.000798  d :     0.005546
      dxz     :     0.003296
      dyz     :     0.000065
      dx2y2   :     0.001166
      dxy     :     0.000221

 12 H s       :    -0.002394  s :    -0.002394
      pz      :     0.003091  p :     0.010807
      px      :     0.007390
      py      :     0.000327
      dz2     :     0.000456  d :     0.002250
      dxz     :     0.001570
      dyz     :     0.000135
[...]
                                DFTD4 V3.4.0                                   
-------------------------------------------------------------------------------
-------------------------   ----------------
Dispersion correction           -0.007490445
-------------------------   ----------------


-------------------------   --------------------
FINAL SINGLE POINT ENERGY      -270.660372028104
-------------------------   --------------------

------------------------------------------------------------------------------
                         ORCA GEOMETRY RELAXATION STEP
------------------------------------------------------------------------------

Reading the OPT-File                    .... done
Getting information on internals        .... done
Copying old internal coords+grads       .... done
Making the new internal coordinates     .... (2022 redundants) done
Validating the new internal coordinates .... (2022 redundants) done
Calculating the B-matrix                .... done
Calculating the G,G- and P matrices     .... done
Transforming gradient to internals      .... done
Projecting the internal gradient        .... done
Number of atoms                         ....  15
Number of internal coordinates          ....  78
Current Energy                          ....  -270.660372028 Eh
Current gradient norm                   ....     0.010776904 Eh/bohr
Maximum allowed component of the step   ....  0.300
Current trust radius                    ....  0.100
Updating the Hessian (Bofill)           .... done
Diagonalizing the Hessian               .... done
Dimension of the hessian                ....  78
Lowest eigenvalues of the Hessian:
 -0.003889459  0.001424170  0.002807807  0.003085396  0.008234753
Hessian has   1 negative eigenvalues
Taking P-RFO step
Searching for lambda that maximizes along the lowest mode
TS mode is mode number   0 with eigenvalue  -0.00388946 and components:
   1.    0.00469762
   2.   -0.00877232
   3.    0.01414980
   4.    0.00002853
   5.   -0.01755055
   6.   -0.00966662
   7.    0.00402912
   8.    0.01690009
   9.    0.01520155
  10.    0.00091410
  11.   -0.00202933
  12.   -0.01295034
  13.   -0.00579171
  14.    0.28622049
  15.    0.01532334
  16.   -0.01069353
  17.   -0.01579908
  18.    0.00800790
  19.    0.00835022
  20.   -0.01468518
  21.    0.01359811
  22.    0.00276491
  23.    0.02108370
  24.   -0.02809898
  25.   -0.00676911
  26.    0.00117501
  27.    0.01079434
  28.    0.00151601
  29.   -0.01594903
  30.    0.02573904
  31.   -0.05450907
  32.    0.01272017
  33.    0.02529099
  34.    0.00479055
  35.   -0.02568873
  36.    0.00299209
  37.   -0.04084838
  38.   -0.00524392
  39.    0.21499232
  40.   -0.13539837
  41.    0.00037468
  42.   -0.24002899
  43.   -0.21098805
  44.   -0.16368738
  45.    0.16331270
  46.    0.00260710
  47.    0.00284927
  48.    0.05319431
  49.    0.05343648
  50.    0.00102250
  51.   -0.02121424
  52.   -0.03821055
  53.    0.02754232
  54.   -0.04773406
  55.   -0.01144803
  56.    0.01652416
  57.    0.02745514
  58.    0.01977094
  59.   -0.02237901
  60.   -0.01913223
  61.    0.07550271
  62.    0.09019309
  63.    0.07845961
  64.    0.01724600
  65.    0.00551252
  66.    0.04396177
  67.    0.00255562
  68.    0.14336479
  69.    0.14368386
  70.   -0.03148458
  71.   -0.03116551
  72.    0.29540296
  73.    0.41621688
  74.    0.35237080
  75.    0.31139394
  76.    0.33637983
  77.   -0.10705431
  78.   -0.04630850

Lambda that maximizes along the TS mode:       0.00410417
Searching for lambda that minimizes along all other modes
In cycle   1: lambdaN =  -0.00263301   step =   0.00263301
In cycle   2: lambdaN =  -0.00400944   step =   0.00137644
In cycle   3: lambdaN =  -0.00410368   step =   0.00009423
In cycle   4: lambdaN =  -0.00410397   step =   0.00000029
In cycle   5: lambdaN =  -0.00410397   step =   0.00000000
Lambda that minimizes along all other modes:  -0.00410397
Calculated stepsize too large (   0.8093 >    0.1000). Scaled with    0.1236.
The final length of the internal step   ....       0.1000
Converting the step to Cartesian space:
 Initial RMS(Int)=    0.0113227703
Transforming coordinates:
 Iter   0:  RMS(Cart)=    0.0216742517 RMS(Int)=    0.0114572756
done
Storing new coordinates                 .... done
The predicted energy change is          ....     0.059119686
Previously predicted energy change      ....     0.012293383
Actually observed energy change         ....    -0.000065332
Ratio of predicted to observed change   ....     0.005314365
New trust radius                        ....     0.100000000

                                .--------------------.
          ----------------------|Geometry convergence|-------------------------
          Item                value                   Tolerance       Converged
          ---------------------------------------------------------------------
          Energy change      -0.0000653315            0.0000050000      NO
          RMS gradient        0.0011756097            0.0001000000      NO
          MAX gradient        0.0049286506            0.0003000000      NO
          RMS step            0.0113227703            0.0020000000      NO
          MAX step            0.0370690771            0.0040000000      NO
          -------------------------------------------------------------------------
          ........................................................
          Max(Bonds)      0.0124      Max(Angles)    1.64
          Max(Dihed)        2.12      Max(Improp)    0.00
          ---------------------------------------------------------------------

The optimization has not yet converged - more geometry cycles are needed


    ---------------------------------------------------------------------------
                         Redundant Internal Coordinates
                            (Angstroem and degrees)

        Definition                    Value    dE/dq     Step     New-Value  comp.(TS mode)
    ----------------------------------------------------------------------------
     1. B(C   1,C   0)                1.3361 -0.000329 -0.0000    1.3361   
     2. B(H   2,C   0)                1.0839  0.000646 -0.0002    1.0837   
     3. B(C   3,C   1)                1.5082 -0.000719  0.0001    1.5083   
     4. B(H   4,C   1)                1.0832  0.000006 -0.0000    1.0832   
     5. B(C   5,C   3)                1.5474  0.000600 -0.0004    1.5470   
     6. B(H   6,C   3)                1.0977  0.000520  0.0001    1.0977   
     7. B(H   7,C   3)                1.0919 -0.000261  0.0001    1.0920   
     8. B(C   8,C   5)                1.5432 -0.001656 -0.0001    1.5432   
     9. B(C   8,C   0)                1.5063  0.000033 -0.0001    1.5063   
    10. B(H   9,C   5)                1.0894 -0.000009  0.0000    1.0894   
    11. B(H  10,C   5)                1.0920  0.000118  0.0001    1.0921   
    12. B(H  11,C   8)                1.1011 -0.001182  0.0006    1.1016   
    13. B(H  12,C   8)                1.0921  0.000378 -0.0001    1.0921   
    14. B(O  13,H  11)                1.9301 -0.002677  0.0048    1.9349          0.29
    15. B(H  14,O  13)                0.9670 -0.003253  0.0003    0.9673   
    16. B(H  14,H  11)                2.1280 -0.001256  0.0124    2.1404   
    17. A(H   2,C   0,C   8)          123.54  0.000629   -0.02    123.52   
    18. A(C   1,C   0,H   2)          124.77 -0.000201    0.02    124.79   
    19. A(C   1,C   0,C   8)          111.66 -0.000431    0.00    111.66   
    20. A(C   0,C   1,H   4)          125.10  0.000446   -0.02    125.09   
    21. A(C   3,C   1,H   4)          123.00 -0.000378    0.02    123.02   
    22. A(C   0,C   1,C   3)          111.86 -0.000102   -0.01    111.85   
    23. A(C   1,C   3,H   6)          110.44 -0.000541    0.02    110.46   
    24. A(C   5,C   3,H   6)          111.98  0.000591   -0.01    111.97   
    25. A(C   1,C   3,C   5)          103.07  0.000293   -0.03    103.05   
    26. A(H   6,C   3,H   7)          106.36  0.000189   -0.03    106.32   
    27. A(C   5,C   3,H   7)          112.47 -0.000417    0.01    112.48   
    28. A(C   1,C   3,H   7)          112.64 -0.000127    0.04    112.68   
    29. A(C   3,C   5,H   9)          112.46  0.000763    0.03    112.49   
    30. A(C   3,C   5,C   8)          105.10 -0.000654    0.01    105.11   
    31. A(C   8,C   5,H  10)          110.25  0.001036   -0.11    110.14   
    32. A(C   3,C   5,H  10)          109.26 -0.000477   -0.01    109.25   
    33. A(C   8,C   5,H   9)          111.68 -0.000490    0.07    111.74   
    34. A(H   9,C   5,H  10)          108.07 -0.000158    0.01    108.08   
    35. A(C   0,C   8,C   5)          103.35  0.000869   -0.04    103.31   
    36. A(H  11,C   8,H  12)          106.78  0.000602   -0.12    106.66   
    37. A(C   5,C   8,H  12)          113.78  0.001328   -0.11    113.67   
    38. A(C   0,C   8,H  12)          113.58 -0.000830    0.07    113.65   
    39. A(C   5,C   8,H  11)          108.05 -0.004929    0.40    108.45   
    40. A(C   0,C   8,H  11)          111.25  0.002790   -0.18    111.07   
    41. A(O  13,H  11,H  14)           27.01 -0.000721   -0.13     26.87   
    42. A(C   8,H  11,H  14)          118.57  0.000402    1.64    120.21   
    43. A(C   8,H  11,O  13)          141.11 -0.000144    1.17    142.28   
    44. A(H  11,O  13,H  14)           87.98  0.001511    0.51     88.48   
    45. A(H  11,H  14,O  13)           65.01 -0.000790   -0.37     64.64   
    46. D(H   4,C   1,C   0,H   2)      0.64 -0.000268    0.06      0.71   
    47. D(H   4,C   1,C   0,C   8)   -177.67 -0.000176    0.09   -177.58   
    48. D(C   3,C   1,C   0,H   2)    178.45 -0.001266    0.04    178.49   
    49. D(C   3,C   1,C   0,C   8)      0.14 -0.001174    0.07      0.21   
    50. D(C   5,C   3,C   1,H   4)   -168.62 -0.000058    0.01   -168.61   
    51. D(H   6,C   3,C   1,C   0)   -106.26  0.000299    0.05   -106.21   
    52. D(H   7,C   3,C   1,C   0)    134.99  0.000510    0.04    135.03   
    53. D(H   6,C   3,C   1,H   4)     71.60 -0.000654    0.03     71.63   
    54. D(C   5,C   3,C   1,C   0)     13.52  0.000895    0.03     13.55   
    55. D(H   9,C   5,C   3,H   6)    -24.07  0.000097   -0.21    -24.28   
    56. D(C   8,C   5,C   3,H   7)   -142.66 -0.000124   -0.15   -142.80   
    57. D(C   8,C   5,C   3,H   6)     97.64 -0.000493   -0.11     97.53   
    58. D(C   8,C   5,C   3,C   1)    -21.07 -0.000312   -0.11    -21.18   
    59. D(H   9,C   5,C   3,H   7)     95.64  0.000466   -0.25     95.39   
    60. D(H   9,C   5,C   3,C   1)   -142.78  0.000277   -0.22   -142.99   
    61. D(H  11,C   8,C   5,H  10)    145.59 -0.001284    0.26    145.85   
    62. D(H  11,C   8,C   5,H   9)     25.43 -0.001461    0.28     25.71   
    63. D(H  11,C   8,C   5,C   3)    -96.78 -0.001693    0.20    -96.59   
    64. D(C   0,C   8,C   5,H   9)    143.41 -0.000026    0.23    143.64   
    65. D(C   0,C   8,C   5,C   3)     21.20 -0.000258    0.15     21.35   
    66. D(H  12,C   8,C   0,C   1)   -137.56 -0.001050   -0.01   -137.57   
    67. D(C   0,C   8,C   5,H  10)    -96.43  0.000151    0.21    -96.22   
    68. D(H  11,C   8,C   0,H   2)    -76.41 -0.003193    0.25    -76.15   
    69. D(H  11,C   8,C   0,C   1)    101.93 -0.003299    0.23    102.16   
    70. D(C   5,C   8,C   0,H   2)    167.88  0.000811   -0.11    167.77   
    71. D(C   5,C   8,C   0,C   1)    -13.79  0.000705   -0.13    -13.92   
    72. D(H  14,H  11,C   8,C   0)    -51.09 -0.000700   -2.12    -53.21          0.30
    73. D(O  13,H  11,C   8,H  12)    164.63 -0.001216   -2.12    162.51          0.42
    74. D(O  13,H  11,C   8,C   5)     41.87 -0.000354   -2.12     39.74          0.35
    75. D(H  14,H  11,C   8,C   5)     61.70 -0.000978   -2.12     59.57          0.31
    76. D(O  13,H  11,C   8,C   0)    -70.92 -0.000076   -2.12    -73.04          0.34
    77. D(H  14,O  13,H  11,C   8)     40.99 -0.000465    1.46     42.45   
    78. D(O  13,H  14,H  11,C   8)   -152.03 -0.000073    0.82   -151.21   
    ----------------------------------------------------------------------------

Geometry step timings:
Preparation and reading OPT file:      0.000 s ( 0.198 %)
Internal coordinates            :      0.000 s ( 0.052 %)
B/P matrices and projection     :      0.001 s ( 0.658 %)
Hessian update/contruction      :      0.049 s (55.932 %)
Making the step                 :      0.001 s ( 1.013 %)
Converting the step to Cartesian:      0.000 s ( 0.094 %)
Storing new data                :      0.014 s (15.589 %)
Checking convergence            :      0.000 s ( 0.102 %)
Final printing                  :      0.023 s (26.362 %)
Total time                      :      0.088 s

Time for energy+gradient        :    233.667 s
Time for complete geometry iter :    238.839 s




    ----------------------------------------------------------------------------
                                   ERROR !!!
       The optimization did not converge but reached the maximum 
       number of optimization cycles.
       As a subsequent Frequencies calculation has been requested
       ORCA will abort at this point of the run.
       Please restart the calculation with the lowest energy geometry and/or
       a larger maxiter for the geometry optimization.
    ----------------------------------------------------------------------------



--------------------------------
SUGGESTED CITATIONS FOR THIS RUN
--------------------------------

Below you find a list of papers that are relevant to this ORCA run
We neither can nor want to force you to cite these papers, but we appreciate if you do
You receive ORCA, which is the product of decades of hard work by many enthusiastic individuals, for free
The only thing we kindly ask in return is that you cite our papers,
We deeply appreciate it, if you show your appreciation for ORCA by not just citing the generic ORCA reference.

Please note that relegating all ORCA citations to the supporting information does *not* help us.
SI sections are not indexed - citations you put there will not count into any citation statistics
But we need these citations in order to attract the funding resources that allow us to do what we are doing

Therefore, if you are a happy ORCA user, please consider citing a few of the papers listed below in the main body of your paper

In addition to the list printed below, the program has created the file opt.bibtex that contains the list in bibtex format
You can import this file easily into all common literature databanks and citation aid programs

It goes without saying that in many instances, there are alternative algorithms to achieve similar
results as the ones you have gotten from ORCA. It is, of course, also the case that in some instances
ORCA just re-implements algorithms worked out by others. We are fully aware of that and we are also
fully appreciative of our colleagues work. Hence this citation list should not be read as indicating
that the listed papers, which are focused on our own work, are the only ones worth citing. It simply
meant to make it easier for users to cite ORCA specific papers. It is not a substitute for doing your
own literature research and citing the relevant literature in a scientifically appropriate manner.

List of essential papers. We consider these as the minimum necessary citations

  1. Neese, F.
     Software update: the ORCA program system, version 6.0
     WIRES Comput. Molec. Sci. 2025 15(1), e70019
     doi.org/10.1002/wcms.70019

List of papers to cite with high priority. The work reported in these papers was absolutely
necessary for this run to complete.
Our perspective: the developers of density functionals and basis sets usually get cited in chemistry papers
Good! But without the algorithms to do something with them, the functionals or basis sets would not do anything.
Hence, in our opinion, the algorithm design and method developments papers are equally worthy of getting cited

  1. Neese, F.
     An improvement of the resolution of the identity approximation for the formation of the Coulomb matrix
     J. Comp. Chem. 2003 24(14), 1740-1747
     doi.org/10.1002/jcc.10318
  2. Neese, F.; Schwabe, T.; Grimme, S.
     Analytic derivatives for perturbatively corrected 'double hybrid' density functionals: Theory, implementation, and applications
     J. Chem. Phys. 2007 126(12), Art. No. 124115
     doi.org/10.1063/1.2712433
  3. Neese, F.; Wennmohs, F.; Hansen, A.; Becker, U.
     Efficient, approximate and parallel Hartree-Fock and hybrid DFT calculations. A 'chain-of-spheres' algorithm for the Hartree-Fock exchange
     Chem. Phys. 2009 356(1-3), 98-109
     doi.org/10.1016/j.chemphys.2008.10.036
  4. Kossmann, S.; Neese, F.
     Efficient Structure Optimization with Second-Order Many-Body Perturbation Theory: The RIJCOSX-MP2 Method
     J. Theo. Comp. Chem. 2010 6 , 2325-2338
     doi.org/10.1021/ct100199k
  5. Caldeweyher, E.; Bannwarth, C.; Grimme, S.
     Extension of the D3 dispersion coefficient model
     J. Chem. Phys. 2017 147 , 034112
     doi.org/10.1063/1.4993215
  6. Caldeweyher, E.; Ehlert, S.; Hansen, A.; Neugebauer, H.; Spicher, S.; Bannwarth, C.; Grimme, S.
     A generally applicable atomic-charge dependent London dispersion correction
     J. Chem. Phys. 2019 150 , 154122
     doi.org/10.1063/1.5090222
  7. Helmich-Paris, B.; de Souza, B.; Neese, F.; Izsák, R.
     An improved chain of spheres for exchange algorithm
     J. Chem. Phys. 2021 155(10), 104109
     doi.org/10.1063/5.0058766
  8. Neese, F.
     The SHARK Integral Generation and Digestion System
     J. Comp. Chem. 2022 44(3), 381
     doi.org/10.1002/jcc.26942

List of suggested additional citations. These are papers that are important in the 'surrounding' of 
of this run, or papers that preceded the highly important papers. If you like your results we are grateful for a citation.

  1. Izsak, R.; Neese, F.
     An overlap fitted chain of spheres exchange method
     J. Chem. Phys. 2011 135 , 144105
     doi.org/10.1063/1.3646921
  2. Izsak, R.; Hansen, A.; Neese, F.
     The resolution of identity and chain of spheres approximations for the LPNO-CCSD singles Fock term
     Molec. Phys. 2012 110 , 2413-2417
     doi.org/10.1080/00268976.2012.687466
  3. Neese, F.
     The ORCA program system
     WIRES Comput. Molec. Sci. 2012 2(1), 73-78
     doi.org/10.1002/wcms.81
  4. Izsak, R.; Neese, F.; Klopper, W.
     Robust fitting techniques in the chain of spheres approximation to the Fock exchange: The role of the complementary space
     J. Chem. Phys. 2013 139 , 
     doi.org/10.1063/1.4819264
  5. Neese, F.
     Software update: the ORCA program system, version 4.0
     WIRES Comput. Molec. Sci. 2018 8(1), 1-6
     doi.org/10.1002/wcms.1327
  6. Neese, F.; Wennmohs, F.; Becker, U.; Riplinger, C.
     The ORCA quantum chemistry program package
     J. Chem. Phys. 2020 152(22), 224108
     doi.org/10.1063/5.0004608
  7. Neese, F.
     Software update: The ORCA program system—Version 5.0
     WIRES Comput. Molec. Sci. 2022 12(1), e1606
     doi.org/10.1002/wcms.1606

List of optional additional citations

  1. Neese, F.
     Approximate second-order SCF convergence for spin unrestricted wavefunctions
     Chem. Phys. Lett. 2000 325(1-3), 93-98
     doi.org/10.1016/s0009-2614(00)00662-x

Timings for individual modules:

Sum of individual times          ...    16747.642 sec (= 279.127 min)
Startup calculation              ...      522.955 sec (=   8.716 min)   3.1 %
SCF iterations                   ...     6079.955 sec (= 101.333 min)  36.3 %
MP2 module                       ...     6953.347 sec (= 115.889 min)  41.5 %
Geometry relaxation              ...        5.364 sec (=   0.089 min)   0.0 %
Numerical frequency calculation  ...     3186.021 sec (=  53.100 min)  19.0 %
                             ****ORCA TERMINATED NORMALLY****
TOTAL RUN TIME: 0 days 4 hours 39 minutes 53 seconds 134 msec
