
                                 *****************
                                 * O   R   C   A *
                                 *****************

                                            #,                                       
                                            ###                                      
                                            ####                                     
                                            #####                                    
                                            ######                                   
                                           ########,                                 
                                     ,,################,,,,,                         
                               ,,#################################,,                 
                          ,,##########################################,,             
                       ,#########################################, ''#####,          
                    ,#############################################,,   '####,        
                  ,##################################################,,,,####,       
                ,###########''''           ''''###############################       
              ,#####''   ,,,,##########,,,,          '''####'''          '####       
            ,##' ,,,,###########################,,,                        '##       
           ' ,,###''''                  '''############,,,                           
         ,,##''                                '''############,,,,        ,,,,,,###''
      ,#''                                            '''#######################'''  
     '                                                          ''''####''''         
             ,#######,   #######,   ,#######,      ##                                
            ,#'     '#,  ##    ##  ,#'     '#,    #''#        ,####,    ,#,          
            ##       ##  ##   ,#'  ##            #'  '#       #'       ,# #          
            ##       ##  #######   ##           ,######,      #####,      #          
            '#,     ,#'  ##    ##  '#,     ,#' ,#      #,     #,   #      #          
             '#######'   ##     ##  '#######'  #'      '#     '####' #    #          



                #########################################################
                #                        -***-                          #
                #          Department of theory and spectroscopy        #
                #                                                       #
                #                      Frank Neese                      #
                #                                                       #
                #     Directorship, Architecture, Infrastructure        #
                #                    SHARK, DRIVERS                     #
                #        Core code/Algorithms in most modules           #
                #                                                       #
                #        Max Planck Institute fuer Kohlenforschung      #
                #                Kaiser Wilhelm Platz 1                 #
                #                 D-45470 Muelheim/Ruhr                 #
                #                      Germany                          #
                #                                                       #
                #                  All rights reserved                  #
                #                        -***-                          #
                #########################################################


                         Program Version 6.1.1  -  RELEASE   -
                                (GIT: $487d211c$)
                          ($2025-11-21 10:33:24 +0100$)


 With contributions from (in alphabetic order):
[Max-Planck-Institut fuer Kohlenforschung]                               
  Daniel Aravena         : Magnetic Suceptibility                        
  Michael Atanasov       : Ab Initio Ligand Field Theory (pilot matlab implementation)
  Alexander A. Auer      : GIAO ZORA, VPT2 properties, NMR spectrum      
  Ute Becker             : All parallelization in ORCA, NUMFREQ, NUMCALC 
  Giovanni Bistoni       : ED, misc. LED, open-shell LED, HFLD           
  Dmytro Bykov           : pre 5.0 version of the SCF Hessian            
  Marcos Casanova-Páez   : Triplet and SCS-CIS(D). UHF-(DLPNO)-IP/EA/STEOM-CCSD. UHF-CVS-IP/STEOM-CCSD   
  Vijay G. Chilkuri      : MRCI spin determinant printing, contributions to CSF-ICE 
  Pauline Colinet        : FMM embedding                                 
  Dipayan Datta          : RHF DLPNO-CCSD density                        
  Achintya Kumar Dutta   : EOM-CC, STEOM-CC                              
  Nicolas Foglia         : Exact transition moments, OPA infrastructure, MCD improvements    
  Dmitry Ganyushin       : Spin-Orbit,Spin-Spin,Magnetic field MRCI      
  Miquel Garcia-Rates    : C-PCM and meta-GGA Hessian, CCSD/C-PCM, Gaussian charge scheme 
  Tiago L. C. Gouveia    : GS-ROHF, GS-ROCIS                             
  Yang Guo               : DLPNO-NEVPT2, F12-NEVPT2, CIM, IAO-localization        
  Andreas Hansen         : Spin unrestricted coupled pair/coupled cluster methods 
  Ingolf Harden          : AUTO-CI MPn and infrastructure                
  Benjamin Helmich-Paris : MC-RPA, TRAH-(SCF,CASSCF), AVAS, COSX integrals, SCF dyn. polar., MC-PDFT, srDFT 
  Lee Huntington         : MR-EOM, pCC                                   
  Robert Izsak           : Overlap fitted RIJCOSX, COSX-SCS-MP3, EOM     
  Riya Kayal             : Wick's Theorem for AUTO-CI, AUTO-CI UHF-CCSDT 
  Emily Kempfer          : AUTO-CI RHF CISDT and CCSDT, approximate NEVPT4
  Christian Kollmar      : KDIIS, OOCD, Brueckner-CCSD(T), CCSD density, CASPT2, CASPT2-K, improved NEVPT2 
  Axel Koslowski         : Symmetry handling                             
  Simone Kossmann        : meta-GGA functionals, TD-DFT gradient, OOMP2, (MP2 Hessian; deprecated post 5.0) 
  Lucas Lang             : DCDCAS, Hyperfine gauge corrections, ICE-SOC+SSC
  Marvin Lechner         : AUTO-CI (C++ implementation), FIC-MRCC        
  Spencer Leger          : CASSCF response                               
  Dagmar Lenk            : GEPOL surface, SMD, ORCA-2-JSON               
  Dimitrios Liakos       : Extrapolation schemes; Compound Job, Property file
  Dimitrios Manganas     : Further ROCIS development; embedding schemes. LFT, Crystal Embedding 
  Dimitrios Pantazis     : SARC Basis sets                               
  Anastasios Papadopoulos: AUTO-CI, single reference methods and gradients 
  Taras Petrenko         : pre 6.0 DFT Hessian and TD-DFT gradient,  ECA, NRVS 
  Petra Pikulova         : Analytic Raman intensities                    
  Peter Pinski           : DLPNO-MP2, DLPNO-MP2 Gradient                 
  Shashank Vittal Rao    : ES-AILFT, MagRelax                            
  Christoph Reimann      : Effective Core Potentials                     
  Marius Retegan         : Local ZFS, SOC                                
  Christoph Riplinger    : Optimizer, TS searches, QM/MM, DLPNO-CCSD(T), (RO)-DLPNO pert. Triples 
  Michael Roemelt        : Original ROCIS implementation, recursive CI coupling coefficients
  Masaaki Saitow         : Open-shell DLPNO-CCSD energy and density      
  Barbara Sandhoefer     : DKH picture change effects                    
  Yorick L. A. Schmerwitz: GMF and freeze-and-release deltaSCF, NEB S-IDPP initial path                    
  Kantharuban Sivalingam : CASSCF convergence/infrastructure, NEVPT2, NEVPT3, NEVPT4(SD), FIC-MRCI and CEPA variants
  Bernardo de Souza      : ESD, SOC TD-DFT                               
  Georgi L. Stoychev     : AutoAux, RI-MP2 NMR, DLPNO-MP2 response, X2C  
  Van Anh Tran           : RI-MP2 g-tensors                              
  Willem Van den Heuvel  : Paramagnetic NMR                              
  Zikuan Wang            : NOTCH, Electric field optimization            
  Frank Wennmohs         : Technical directorship and infrastructure     
  Hang Xu                : AUTO-CI-Response properties                   
                                                                         
[FACCTs GmbH]                                                            
  Markus Bursch, Nicolas Foglia, Miquel Garcia-Rates, Ingolf Harden, Hagen Neugebauer, Anastasios Papadopoulos, 
  Christoph Riplinger, Bernardo de Souza, Georgi L. Stoychev                                                    
                                                                 
  APM, various basis sets, CI-OPT, improved COSX, DLPNO-Multilevel,           
  DOCKER, DRACO, updates on ESD, Fragmentator, GOAT, IRC, LR-CPCM, L-BFGS, MBIS, meta-GGA TD-DFT gradient, ML-optimized integration grids, 
  MM, NACMEs, nearIR, NEB, NEB-TS, NL-DFT gradient (VV10), 2- and 3-layer-ONIOM, interface openCOSMO-RS, QMMM,   
  Crystal-QMMM, RESP, rigid body optimization, SF, symmetry and pop. for TD-DFT, various functionals, SOLVATOR                                   
                                                                         
[Other institutions]                                                     
  V. Asgeirsson          : NEB                                           
  Christoph Bannwarth    : sTDA-DFT, sTD-DFT, PBEh-3c, B97-3c, D3        
  Giovanni Bistoni       : ETS/NOCV, ADLD/ADEX, COVALED                  
  Martin Brehm           : Molecular dynamics                            
  Ronald Cardenas        : ETS/NOCV                                      
  Martina Colucci        : COVALED                                       
  Sebastian Ehlert       : rSCAN, r2SCAN, r2SCAN-3c, D4, dhf basis sets  
  Marvin Friede          : D4 for Fr, Ra, Ac-Lr                          
  Lars Goerigk           : TD-DFT with DH, B97 family of functionals     
  Stefan Grimme          : VdW corrections, initial TS optimization, DFT functionals, gCP, sTDA/sTD-DF 
  Waldemar Hujo          : DFT-NL                                        
  H. Jonsson             : NEB                                           
  Holger Kruse           : gCP                                           
  Marcel Mueller         : wB97X-3c, vDZP basis set                      
  Hagen Neugebauer       : wr2SCAN, Native XTB                           
  Gianluca Regni         : ADLD/ADEX                                     
  Tobias Risthaus        : pre 6.0 range-separated hybrid DFT and stability analysis
  Lukas Wittmann         : regularized MP2, r2SCAN double-hybrids, wr2SCAN        
                                                                         
We gratefully acknowledge several colleagues who have allowed us to      
interface, adapt or use parts of their codes:                            
  Ed Valeev, F. Pavosevic, A. Kumar             : LibInt (2-el integral package), F12 methods 
  Garnet Chan, S. Sharma, J. Yang, R. Olivares  : DMRG                   
  Ulf Ekstrom                                   : XCFun DFT Library      
  Mihaly Kallay                                 : mrcc  (arbitrary order and MRCC methods)
  Frank Weinhold                                : gennbo (NPA and NBO analysis)           
  Simon Mueller                                 : openCOSMO-RS                            
  Christopher J. Cramer and Donald G. Truhlar   : smd solvation model                     
  S Lehtola, MJT Oliveira, MAL Marques          : LibXC Library                           
  Liviu Ungur et al                             : ANISO software                          


 Your calculation uses the libint2 library for the computation of 2-el integrals
 For citations please refer to: http://libint.valeyev.net

 Your ORCA version has been built with support for libXC version: 7.0.0
 For citations please refer to: https://libxc.gitlab.io

 This ORCA versions uses:
   CBLAS   interface :  Fast vector & matrix operations
   LAPACKE interface :  Fast linear algebra routines
   SCALAPACK package :  Parallel linear algebra routines
   Shared memory     :  Shared parallel matrices
   BLAS/LAPACK       :  OpenBLAS 0.3.29  USE64BITINT DYNAMIC_ARCH NO_AFFINITY Cooperlake SINGLE_THREADED
        Core in use  :  Cooperlake
   Copyright (c) 2011-2014, The OpenBLAS Project


  ***********************************
  * Starting time: Thu Mar 12 16:06:38 2026
  * Host name:     e1-13
  * Process ID:    1860597
  * Working dir.:  /tmp/lscratch/avcopan/43559169
  ***********************************

NOTE: MaxCore=6000 MB was set to SCF,MP2,MDCI,CIPSI,MRCI,RASCI and CIS
      => If you want to overwrite this, your respective input block should be placed after the MaxCore statement


***************************************
The coordinates will be read from file: guess.xyz
***************************************


Your calculation utilizes the atom-pairwise dispersion correction
based on EEQ partial charges (D4)


Warning: RI is on but no J-basis has been assigned. Assigning Def2/J (nothing to worry about!)
================================================================================

----- Orbital basis set information -----
Your calculation utilizes the basis: def2-TZVPP
   F. Weigend and R. Ahlrichs, Phys. Chem. Chem. Phys. 7, 3297 (2005).

----- AuxJ basis set information -----
Your calculation utilizes the auxiliary basis: def2/J
   H-Rn: F. Weigend, Phys. Chem. Chem. Phys. 8, 1057 (2006).
   Fr-Lr: K. Eichkorn, F. Weigend, O. Treutler, R. Ahlrichs; Theor. Chem. Acc. 97, 119 (1997).

----- AuxC basis set information -----
Your calculation utilizes the auxiliary basis: def2-TZVPP/C
  H-La, Hf-Rn : A. Hellweg, C. Hattig, S. Hofener and W. Klopper, Theor. Chem. Acc. 117, 587 (2007).
        Ce-Lu : J. Chmela and M. E. Harding, Mol. Phys. (2018).

================================================================================
                                        WARNINGS
                       Please study these warnings very carefully!
================================================================================


WARNING: The frozen-core approximation for MP2-gradient calculations is turned on by default.

WARNING: The environment variable RSH_COMMAND is not set!
  ===> : All Displacements for the Numerical Hessian or Gradient calculation
         will be started on localhost

WARNING: Geometry Optimization
  ===> : Switching off AutoStart
         For restart on a previous wavefunction, please use MOREAD

WARNING: The frozen-core approximation is turned on by default for 
         the MP2 part of double-hybrid DFT.

================================================================================
                                       INPUT FILE
================================================================================
NAME = opt.inp
|  1> % MaxCore 6000
|  2> ! PAL8
|  3> ! REVDSD-PBEP86-D4/2021 def2-TZVPP def2-TZVPP/c
|  4> ! VeryTightSCF DefGrid3
|  5> ! Opt
|  6> ! NumFreq
|  7> * xyzfile 0 1 guess.xyz
|  8> 
|  9>                          ****END OF INPUT****
================================================================================

                       *****************************
                       * Geometry Optimization Run *
                       *****************************

Geometry optimization settings:
Update method            Update   .... BFGS
Choice of coordinates    CoordSys .... (2022) Redundant Internals
Initial Hessian          InHess   .... Almloef's Model
Max. no of cycles        MaxIter  .... 50

Convergence Tolerances:
Energy Change            TolE     ....  5.0000e-06 Eh
Max. Gradient            TolMAXG  ....  3.0000e-04 Eh/bohr
RMS Gradient             TolRMSG  ....  1.0000e-04 Eh/bohr
Max. Displacement        TolMAXD  ....  4.0000e-03 bohr
RMS Displacement         TolRMSD  ....  2.0000e-03 bohr
Strict Convergence                .... False

------------------------------------------------------------------------------
                        ORCA OPTIMIZATION COORDINATE SETUP
------------------------------------------------------------------------------

The optimization will be done in redundant internal coordinates (2022)
Making redundant internal coordinates   ...  (2022 redundants) done
Evaluating the initial hessian          ...  (Almloef) done
Evaluating the coordinates              ...  done
Calculating the B-matrix                .... done
Calculating the G-matrix                .... done
The number of degrees of freedom        ....   10

    -----------------------------------------------------------------
                    Redundant Internal Coordinates


    -----------------------------------------------------------------
         Definition                    Initial Value    Approx d2E/dq
    -----------------------------------------------------------------
      1. B(H   1,C   0)                  1.0700         0.387554   
      2. B(H   2,C   0)                  1.0700         0.387554   
      3. B(H   3,C   0)                  1.0700         0.387554   
      4. B(H   4,C   0)                  1.0700         0.387554   
      5. A(H   1,C   0,H   3)          109.4713         0.297665   
      6. A(H   2,C   0,H   3)          109.4712         0.297665   
      7. A(H   1,C   0,H   4)          109.4712         0.297665   
      8. A(H   2,C   0,H   4)          109.4712         0.297665   
      9. A(H   3,C   0,H   4)          109.4712         0.297665   
     10. A(H   1,C   0,H   2)          109.4712         0.297665   
    -----------------------------------------------------------------

Number of atoms                         .... 5
Number of degrees of freedom            .... 10


         *************************************************************
         *                GEOMETRY OPTIMIZATION CYCLE   1            *
         *************************************************************
---------------------------------
CARTESIAN COORDINATES (ANGSTROEM)
---------------------------------
  C     -1.720869    2.845716   -1.632417
  H     -0.691291    3.129202   -1.699535
  H     -2.240547    3.536255   -1.001552
  H     -2.158081    2.856178   -2.608960
  H     -1.793558    1.861229   -1.219620

----------------------------
CARTESIAN COORDINATES (A.U.)
----------------------------
  NO LB      ZA    FRAG     MASS         X           Y           Z
   0 C     6.0000    0    12.011   -3.251971    5.377624   -3.084821
   1 H     1.0000    0     1.008   -1.306351    5.913335   -3.211656
   2 H     1.0000    0     1.008   -4.234020    6.682553   -1.892659
   3 H     1.0000    0     1.008   -4.078182    5.397394   -4.930220
   4 H     1.0000    0     1.008   -3.389333    3.517213   -2.304748

--------------------------------
INTERNAL COORDINATES (ANGSTROEM)
--------------------------------
 C      0   0   0     0.000000000000     0.00000000     0.00000000
 H      1   0   0     1.069999998226     0.00000000     0.00000000
 H      1   2   0     1.069999991790   109.47121874     0.00000000
 H      1   2   3     1.070000008055   109.47127782   120.00000718
 H      1   2   3     1.069999863130   109.47122605   240.00004118

---------------------------
INTERNAL COORDINATES (A.U.)
---------------------------
 C      0   0   0     0.000000000000     0.00000000     0.00000000
 H      1   0   0     2.022006959944     0.00000000     0.00000000
 H      1   2   0     2.022006947781   109.47121874     0.00000000
 H      1   2   3     2.022006978517   109.47127782   120.00000718
 H      1   2   3     2.022006704650   109.47122605   240.00004118

---------------------
BASIS SET INFORMATION
---------------------
There are 2 groups of distinct atoms

 Group   1 Type C   : 11s6p2d1f contracted to 5s3p2d1f pattern {62111/411/11/1}
 Group   2 Type H   : 5s2p1d contracted to 3s2p1d pattern {311/11/1}

Atom   0C    basis set group =>   1
Atom   1H    basis set group =>   2
Atom   2H    basis set group =>   2
Atom   3H    basis set group =>   2
Atom   4H    basis set group =>   2
---------------------------------
AUXILIARY/J BASIS SET INFORMATION
---------------------------------
There are 2 groups of distinct atoms

 Group   1 Type C   : 12s5p4d2f1g contracted to 6s4p3d1f1g pattern {711111/2111/211/2/1}
 Group   2 Type H   : 5s2p1d contracted to 3s1p1d pattern {311/2/1}

Atom   0C    basis set group =>   1
Atom   1H    basis set group =>   2
Atom   2H    basis set group =>   2
Atom   3H    basis set group =>   2
Atom   4H    basis set group =>   2
---------------------------------
AUXILIARY/C BASIS SET INFORMATION
---------------------------------
There are 2 groups of distinct atoms

 Group   1 Type C   : 8s6p5d3f1g contracted to 8s6p4d3f1g pattern {11111111/111111/2111/111/1}
 Group   2 Type H   : 4s3p2d1f contracted to 4s3p2d1f pattern {1111/111/11/1}

Atom   0C    basis set group =>   1
Atom   1H    basis set group =>   2
Atom   2H    basis set group =>   2
Atom   3H    basis set group =>   2
Atom   4H    basis set group =>   2


           ************************************************************
           *        Program running with 8 parallel MPI-processes     *
           *              working on a common directory               *
           ************************************************************
------------------------------------------------------------------------------
                             ORCA STARTUP CALCULATIONS
                           -- RI-GTO INTEGRALS CHOSEN --
------------------------------------------------------------------------------
------------------------------------------------------------------------------
                   ___                                                        
                  /   \      - P O W E R E D   B Y -                         
                 /     \                                                     
                 |  |  |   _    _      __       _____    __    __             
                 |  |  |  | |  | |    /  \     |  _  \  |  |  /  |          
                  \  \/   | |  | |   /    \    | | | |  |  | /  /          
                 / \  \   | |__| |  /  /\  \   | |_| |  |  |/  /          
                |  |  |   |  __  | /  /__\  \  |    /   |      \           
                |  |  |   | |  | | |   __   |  |    \   |  |\   \          
                \     /   | |  | | |  |  |  |  | |\  \  |  | \   \       
                 \___/    |_|  |_| |__|  |__|  |_| \__\ |__|  \__/        
                                                                              
                      - O R C A' S   B I G   F R I E N D -                    
                                      &                                       
                       - I N T E G R A L  F E E D E R -                       
                                                                              
 v1 FN, 2020, v2 2021, v3 2022-2024                                           
------------------------------------------------------------------------------


----------------------
SHARK INTEGRAL PACKAGE
----------------------

Number of atoms                             ...      5
Number of basis functions                   ...     87
Number of shells                            ...     35
Maximum angular momentum                    ...      3
Integral batch strategy                     ... SHARK/LIBINT Hybrid
RI-J (if used) integral strategy            ... SPLIT-RIJ (Revised 2003 algorithm where possible)
Printlevel                                  ...      1
Contraction scheme used                     ... SEGMENTED contraction
Prescreening option                         ... SCHWARTZ
   Thresh                                   ... 1.000e-12
   Tcut                                     ... 1.000e-14
   Tpresel                                  ... 1.000e-14 
Coulomb Range Separation                    ... NOT USED
Exchange Range Separation                   ... NOT USED
Multipole approximations                    ... NOT USED
Finite Nucleus Model                        ... NOT USED
CABS basis                                  ... NOT available
Auxiliary Coulomb fitting basis             ... AVAILABLE
   # of basis functions in Aux-J            ...     93
   # of shells in Aux-J                     ...     35
   Maximum angular momentum in Aux-J        ...      4
Auxiliary J/K fitting basis                 ... NOT available
Auxiliary Correlation fitting basis         ... AVAILABLE
   # of basis functions in Aux-C            ...    196
   # of shells in Aux-C                     ...     62
   Maximum angular momentum in Aux-C        ...      4
Auxiliary 'external' fitting basis          ... NOT available

Checking pre-screening integrals            ... done (  0.0 sec) Dimension = 35
   => SHARK Basis and OBASIS are compatible. Storing Pre-screening
Shell pair information
Shell pair cut-off parameter TPreSel        ...   1.0e-14
Total number of shell pairs                 ...       630
Shell pairs after pre-screening             ...       630
Total number of primitive shell pairs       ...      1412
Primitive shell pairs kept                  ...      1366
          la=0 lb=0:    153 shell pairs
          la=1 lb=0:    187 shell pairs
          la=1 lb=1:     66 shell pairs
          la=2 lb=0:    102 shell pairs
          la=2 lb=1:     66 shell pairs
          la=2 lb=2:     21 shell pairs
          la=3 lb=0:     17 shell pairs
          la=3 lb=1:     11 shell pairs
          la=3 lb=2:      6 shell pairs
          la=3 lb=3:      1 shell pairs

Checking whether 4 symmetric matrices of dimension 87 fit in memory
:Max Core in MB      =   6000.00
 MB in use           =      3.98
 MB left             =   5996.02
 MB needed           =      0.12
 Data fit in memory  = YES
Calculating RI/J V-Matrix + Cholesky decomp.... done (  0.0 sec)
Calculating RI/C V-Matrix + Cholesky decomp.... done (  0.0 sec)
Calculating Nuclear repulsion               ... done (  0.0 sec) ENN=     13.686518401764 Eh

Diagonalization of the overlap matrix:
Smallest eigenvalue                        ... 4.788e-04
Time for diagonalization                   ...    0.002 sec
Threshold for overlap eigenvalues          ... 1.000e-07
Number of eigenvalues below threshold      ... 0
Time for construction of square roots      ...    0.000 sec
Total time needed                          ...    0.003 sec

-------------------
DFT GRID GENERATION
-------------------

General Integration Accuracy     IntAcc      ... 4.959
Radial Grid Type                 RadialGrid  ... OptM3 with GC (2021)
Angular Grid (max. ang.)         AngularGrid ... 6 (Lebedev-590)
Angular grid pruning method      GridPruning ... 4 (adaptive)
Weight generation scheme         WeightScheme... mBecke (2022)
Basis function cutoff            BFCut       ... 1.0000e-12
Integration weight cutoff        WCut        ... 1.0000e-14
Partially contracted basis set               ... off
Rotationally invariant grid construction     ... off
Angular grids for H and He will be reduced by one unit

Total number of grid points                  ...    50629
Total number of batches                      ...      794
Average number of points per batch           ...       63
Average number of grid points per atom       ...    10126

--------------------
COSX GRID GENERATION
--------------------

GRIDX 1
-------
General Integration Accuracy     IntAcc      ... 4.020
Radial Grid Type                 RadialGrid  ... OptM3 with GC (2021)
Angular Grid (max. ang.)         AngularGrid ... 2 (Lebedev-110)
Angular grid pruning method      GridPruning ... 4 (adaptive)
Weight generation scheme         WeightScheme... mBecke (2022)
Basis function cutoff            BFCut       ... 1.0000e-12
Integration weight cutoff        WCut        ... 1.0000e-14
Partially contracted basis set               ... on
Rotationally invariant grid construction     ... off
Angular grids for H and He will be reduced by one unit

Total number of grid points                  ...     5086
Total number of batches                      ...       43
Average number of points per batch           ...      118
Average number of grid points per atom       ...     1017
UseSFitting                                  ... on

GRIDX 2
-------
General Integration Accuracy     IntAcc      ... 4.338
Radial Grid Type                 RadialGrid  ... OptM3 with GC (2021)
Angular Grid (max. ang.)         AngularGrid ... 3 (Lebedev-194)
Angular grid pruning method      GridPruning ... 4 (adaptive)
Weight generation scheme         WeightScheme... mBecke (2022)
Basis function cutoff            BFCut       ... 1.0000e-12
Integration weight cutoff        WCut        ... 1.0000e-14
Partially contracted basis set               ... on
Rotationally invariant grid construction     ... off
Angular grids for H and He will be reduced by one unit

Total number of grid points                  ...    11170
Total number of batches                      ...       90
Average number of points per batch           ...      124
Average number of grid points per atom       ...     2234
UseSFitting                                  ... on

GRIDX 3
-------
General Integration Accuracy     IntAcc      ... 4.871
Radial Grid Type                 RadialGrid  ... OptM3 with GC (2021)
Angular Grid (max. ang.)         AngularGrid ... 4 (Lebedev-302)
Angular grid pruning method      GridPruning ... 4 (adaptive)
Weight generation scheme         WeightScheme... mBecke (2022)
Basis function cutoff            BFCut       ... 1.0000e-12
Integration weight cutoff        WCut        ... 1.0000e-14
Partially contracted basis set               ... on
Rotationally invariant grid construction     ... off
Angular grids for H and He will be reduced by one unit

Total number of grid points                  ...    23536
Total number of batches                      ...      187
Average number of points per batch           ...      125
Average number of grid points per atom       ...     4707
UseSFitting                                  ... on
Grids setup in   0.3 sec
Initializing property integral containers    ... done (  0.0 sec)

SHARK setup successfully completed in   0.4 seconds

Maximum memory used throughout the entire STARTUP-calculation: 14.1 MB


           ************************************************************
           *        Program running with 8 parallel MPI-processes     *
           *              working on a common directory               *
           ************************************************************
-------------------------------------------------------------------------------
                                 ORCA GUESS
                   Start orbitals & Density for SCF / CASSCF
-------------------------------------------------------------------------------

------------
SCF SETTINGS
------------
Hamiltonian:
 Density Functional     Method          .... DFT(GTOs)
 Exchange Functional    Exchange        .... PBE
   PBE kappa parameter   XKappa         ....  0.804000
   PBE mue parameter    XMuePBE         ....  0.219520
 Correlation Functional Correlation     .... P86
 LDA part of GGA corr.  LDAOpt          .... VWN-5
 Gradients option       PostSCFGGA      .... off
 Hybrid DFT is turned on
   Fraction HF Exchange ScalHFX         ....  0.690000
   Scaling of DF-GGA-X  ScalDFX         ....  0.310000
   Scaling of DF-GGA-C  ScalDFC         ....  0.422400
   Scaling of DF-LDA-C  ScalLDAC        ....  0.422400
   Perturbative correction              ....  1.000000
 RI-approximation to the Coulomb term is turned on
   Number of AuxJ basis functions       .... 93
   RIJ-COSX (HFX calculated with COS-X)).... on


General Settings:
 Integral files         IntName         .... opt
 Hartree-Fock type      HFTyp           .... RHF
 Total Charge           Charge          ....    0
 Multiplicity           Mult            ....    1
 Number of Electrons    NEL             ....   10
 Basis Dimension        Dim             ....   87
 Nuclear Repulsion      ENuc            ....     13.6865184018 Eh

Convergence Acceleration:
 AO-DIIS                CNVDIIS         .... on
   Start iteration      DIISMaxIt       ....    12
   Startup error        DIISStart       ....  0.200000
   # of expansion vecs  DIISMaxEq       ....     5
   Bias factor          DIISBfac        ....   1.050
   Max. coefficient     DIISMaxC        ....  10.000
 MO-DIIS                CNVKDIIS        .... off
 Trust-Rad. Augm. Hess. CNVTRAH         .... auto
   Auto Start mean grad. ratio tolernc. ....  1.125000
   Auto Start start iteration           ....    50
   Auto Start num. interpolation iter.  ....    10
   Max. Number of Micro iterations      ....    24
   Max. Number of Macro iterations      .... Maxiter - #DIIS iter
   Number of Davidson start vectors     ....     2
   Converg. threshold    (grad. norm)   ....   2.000e-06
   Grad. Scal. Fac. for Micro threshold ....   0.100
   Minimum threshold for Micro iter.    ....   1.000e-02
   NR start threshold (gradient norm)   ....   1.000e-04
   Initial trust radius                 ....   0.400
   Minimum AH scaling param. (alpha)    ....   1.000
   Maximum AH scaling param. (alpha)    .... 1000.000
   Quad. conv. algorithm                .... NR
   White noise on init. David. guess    .... on
   Maximum white noise                  ....   0.010
   Pseudo random numbers                .... off
   Inactive MOs                         .... canonical
   Orbital update algorithm             .... Taylor
   Preconditioner                       .... Diag
   Full preconditioner red. dimension   ....   250
 SOSCF                 CNVSOSCF           .... on
   Start iteration     SOSCFMaxIt         ....   150
   Startup grad/error  SOSCFStart         ....  0.003300
   Hessian update      SOSCFHessUp        .... L-BFGS
   Autom. constraints  SOSCFAutoConstrain .... off
 Level Shifting         CNVShift        .... on
   Level shift para.    LevelShift      ....    0.2500
   Turn off err/grad.   ShiftErr        ....    0.0010
 Zerner damping         CNVZerner       .... off
 Static damping         CNVDamp         .... on
   Fraction old density DampFac         ....    0.7000
   Max. Damping (<1)    DampMax         ....    0.9800
   Min. Damping (>=0)   DampMin         ....    0.0000
   Turn off err/grad.   DampErr         ....    0.1000

SCF Procedure:
 Maximum # iterations   MaxIter         ....   125
 SCF integral mode      SCFMode         .... Direct
   Integral package                     .... SHARK and LIBINT hybrid scheme
 Reset frequency        DirectResetFreq ....    20
 Integral Threshold     Thresh          ....  1.000e-12 Eh
 Primitive CutOff       TCut            ....  1.000e-14 Eh

Convergence Tolerance:
 Convergence Check Mode ConvCheckMode   .... Total+1el-Energy
 Convergence forced     ConvForced      .... 0
 Energy Change          TolE            ....  1.000e-09 Eh
 1-El. energy change                    ....  1.000e-06 Eh
 Orbital Gradient       TolG            ....  2.000e-06
 Orbital Rotation angle TolX            ....  2.000e-06
 DIIS Error             TolErr          ....  1.000e-08

------------------------------
INITIAL GUESS: MODEL POTENTIAL
------------------------------
Loading Hartree-Fock densities                     ... done
Calculating cut-offs                               ... done
Initializing the effective Hamiltonian             ... done
Setting up the integral package (SHARK)            ... done
Starting the Coulomb interaction                   ... done (   0.0 sec)
Making the grid                                    ... done (   0.0 sec)
Mapping shells                                     ... done
Starting the XC term evaluation                    ... done (   0.0 sec)
  promolecular density results
     # of electrons  =      9.997433987
     EX              =     -6.280272119
     EC              =      0.008202881
     EX+EC           =     -6.272069238
Transforming the Hamiltonian                       ... done (   0.0 sec)
Diagonalizing the Hamiltonian                      ... done (   0.0 sec)
Back transforming the eigenvectors                 ... done (   0.0 sec)
Now organizing SCF variables                       ... done
                      ------------------
                      INITIAL GUESS DONE (   0.0 sec)
                      ------------------
             **** ENERGY FILE WAS UPDATED (opt.en.tmp) ****
Finished Guess after   1.5 sec
Maximum memory used throughout the entire GUESS-calculation: 7.6 MB


           ************************************************************
           *        Program running with 8 parallel MPI-processes     *
           *              working on a common directory               *
           ************************************************************

-------------------------------------------------------------------------------------------
                                      ORCA LEAN-SCF
                              memory conserving SCF solver
-------------------------------------------------------------------------------------------

----------------------------------------D-I-I-S--------------------------------------------
Iteration    Energy (Eh)           Delta-E    RMSDP     MaxDP     DIISErr   Damp  Time(sec)
-------------------------------------------------------------------------------------------
               ***  Starting incremental Fock matrix formation  ***
    1    -40.2512402148609567     0.00e+00  4.40e-03  3.89e-02  2.27e-01  0.700   0.1
    2    -40.2847563450158077    -3.35e-02  3.24e-03  2.53e-02  1.38e-01  0.700   0.1
                               ***Turning on AO-DIIS***
    3    -40.3026548462298848    -1.79e-02  1.54e-03  1.07e-02  7.30e-02  0.700   0.1
    4    -40.3131518371471316    -1.05e-02  3.16e-03  2.10e-02  4.62e-02  0.000   0.1
    5    -40.3349173734514608    -2.18e-02  2.18e-04  1.39e-03  3.55e-03  0.000   0.1
                              *** Initializing SOSCF ***
---------------------------------------S-O-S-C-F--------------------------------------
Iteration    Energy (Eh)           Delta-E    RMSDP     MaxDP     MaxGrad    Time(sec)
--------------------------------------------------------------------------------------
    6    -40.3349439691059928    -2.66e-05  8.35e-05  3.88e-04  6.12e-04     0.1
               *** Restarting incremental Fock matrix formation ***
    7    -40.3349574252313516    -1.35e-05  4.40e-05  2.15e-04  1.18e-04     0.1
    8    -40.3349575920952219    -1.67e-07  1.89e-05  7.81e-05  3.10e-05     0.1
    9    -40.3349576089462829    -1.69e-08  3.89e-06  1.92e-05  1.41e-05     0.1
   10    -40.3349576105154171    -1.57e-09  3.49e-07  1.99e-06  5.56e-07     0.1
   11    -40.3349576104918413     2.36e-11  6.70e-08  4.61e-07  9.77e-08     0.1
                 **** Energy Check signals convergence ****

               *****************************************************
               *                     SUCCESS                       *
               *           SCF CONVERGED AFTER  11 CYCLES          *
               *****************************************************

Recomputing exchange energy using gridx3       ... done (    0.102 sec)
Old exchange energy                            :     -4.565892803 Eh
New exchange energy                            :     -4.565892661 Eh
Exchange energy change after final integration :      0.000000142 Eh
Total energy after final integration           :    -40.334957468 Eh
             **** ENERGY FILE WAS UPDATED (opt.en.tmp) ****

----------------
TOTAL SCF ENERGY
----------------

Total Energy       :        -40.33495746845234 Eh           -1097.56999 eV

Components:
Nuclear Repulsion  :         13.68651840176402 Eh             372.42910 eV
Electronic Energy  :        -54.02147601231370 Eh           -1469.99910 eV
One Electron Energy:        -80.25396023087326 Eh           -2183.82128 eV
Two Electron Energy:         26.23248421855956 Eh             713.82219 eV

Virial components:
Potential Energy   :        -80.63388552933309 Eh           -2194.15957 eV
Kinetic Energy     :         40.29892806088075 Eh            1096.58958 eV
Virial Ratio       :          2.00089405374548

DFT components:
N(Alpha)           :        4.999999980551 electrons
N(Beta)            :        4.999999980551 electrons
N(Total)           :        9.999999961101 electrons
E(X)               :       -2.033761409504 Eh       
E(C)               :       -0.139148926138 Eh       
E(XC)              :       -2.172910335643 Eh       

---------------
SCF CONVERGENCE
---------------

  Last Energy change         ...   -2.3576e-11  Tolerance :   1.0000e-09
  Last MAX-Density change    ...    4.6108e-07  Tolerance :   1.0000e-08
  Last RMS-Density change    ...    6.6963e-08  Tolerance :   1.0000e-09
  Last DIIS Error            ...    6.1211e-04  Tolerance :   1.0000e-08
  Last Orbital Gradient      ...    9.7717e-08  Tolerance :   2.0000e-06
  Last Orbital Rotation      ...    1.1399e-07  Tolerance :   2.0000e-06


----------------
ORBITAL ENERGIES
----------------

  NO   OCC          E(Eh)            E(eV) 
   0   2.0000     -10.783780      -293.4416 
   1   2.0000      -0.857175       -23.3249 
   2   2.0000      -0.492247       -13.3947 
   3   2.0000      -0.492246       -13.3947 
   4   2.0000      -0.492246       -13.3947 
   5   0.0000       0.115338         3.1385 
   6   0.0000       0.199307         5.4234 
   7   0.0000       0.199307         5.4234 
   8   0.0000       0.199311         5.4235 
   9   0.0000       0.267894         7.2898 
  10   0.0000       0.267895         7.2898 
  11   0.0000       0.267895         7.2898 
  12   0.0000       0.459697        12.5090 
  13   0.0000       0.582824        15.8594 
  14   0.0000       0.582826        15.8595 
  15   0.0000       0.582827        15.8595 
*Only the first 10 virtual orbitals were printed.

                    ********************************
                    * MULLIKEN POPULATION ANALYSIS *
                    ********************************

-----------------------
MULLIKEN ATOMIC CHARGES
-----------------------
   0 C :   -0.360222
   1 H :    0.090057
   2 H :    0.090047
   3 H :    0.090056
   4 H :    0.090063
Sum of atomic charges:   -0.0000000

--------------------------------
MULLIKEN REDUCED ORBITAL CHARGES
--------------------------------
  0 C s       :     3.126662  s :     3.126662
      pz      :     1.059214  p :     3.177622
      px      :     1.059205
      py      :     1.059202
      dz2     :     0.012017  d :     0.054437
      dxz     :     0.009201
      dyz     :     0.011069
      dx2y2   :     0.015325
      dxy     :     0.006824
      f0      :     0.000237  f :     0.001502
      f+1     :     0.000386
      f-1     :     0.000043
      f+2     :     0.000211
      f-2     :     0.000177
      f+3     :     0.000176
      f-3     :     0.000272

  1 H s       :     0.871471  s :     0.871471
      pz      :     0.009182  p :     0.036697
      px      :     0.017718
      py      :     0.009796
      dz2     :     0.000116  d :     0.001776
      dxz     :     0.000615
      dyz     :     0.000047
      dx2y2   :     0.000437
      dxy     :     0.000561

  2 H s       :     0.871488  s :     0.871488
      pz      :     0.012360  p :     0.036689
      px      :     0.011328
      py      :     0.013002
      dz2     :     0.000465  d :     0.001776
      dxz     :     0.000268
      dyz     :     0.000312
      dx2y2   :     0.000452
      dxy     :     0.000280

  3 H s       :     0.871464  s :     0.871464
      pz      :     0.016862  p :     0.036704
      px      :     0.010694
      py      :     0.009148
      dz2     :     0.000530  d :     0.001776
      dxz     :     0.000470
      dyz     :     0.000564
      dx2y2   :     0.000123
      dxy     :     0.000089

  4 H s       :     0.871462  s :     0.871462
      pz      :     0.010525  p :     0.036699
      px      :     0.009189
      py      :     0.016986
      dz2     :     0.000294  d :     0.001776
      dxz     :     0.000091
      dyz     :     0.000495
      dx2y2   :     0.000347
      dxy     :     0.000549



                     *******************************
                     * LOEWDIN POPULATION ANALYSIS *
                     *******************************

----------------------
LOEWDIN ATOMIC CHARGES
----------------------
   0 C :    0.024138
   1 H :   -0.006034
   2 H :   -0.006038
   3 H :   -0.006033
   4 H :   -0.006033

-------------------------------
LOEWDIN REDUCED ORBITAL CHARGES
-------------------------------
  0 C s       :     2.701766  s :     2.701766
      pz      :     1.022665  p :     3.067990
      px      :     1.022664
      py      :     1.022662
      dz2     :     0.041203  d :     0.186694
      dxz     :     0.031561
      dyz     :     0.037965
      dx2y2   :     0.052560
      dxy     :     0.023406
      f0      :     0.002785  f :     0.019412
      f+1     :     0.004585
      f-1     :     0.000895
      f+2     :     0.002185
      f-2     :     0.003446
      f+3     :     0.002289
      f-3     :     0.003227

  1 H s       :     0.821642  s :     0.821642
      pz      :     0.042872  p :     0.153954
      px      :     0.066511
      py      :     0.044571
      dz2     :     0.002338  d :     0.030437
      dxz     :     0.009886
      dyz     :     0.000765
      dx2y2   :     0.008053
      dxy     :     0.009395

  2 H s       :     0.821645  s :     0.821645
      pz      :     0.051685  p :     0.153955
      px      :     0.048820
      py      :     0.053451
      dz2     :     0.007447  d :     0.030437
      dxz     :     0.004796
      dyz     :     0.005848
      dx2y2   :     0.007252
      dxy     :     0.005093

  3 H s       :     0.821642  s :     0.821642
      pz      :     0.064128  p :     0.153954
      px      :     0.047052
      py      :     0.042774
      dz2     :     0.009586  d :     0.030437
      dxz     :     0.008371
      dyz     :     0.009033
      dx2y2   :     0.001987
      dxy     :     0.001460

  4 H s       :     0.821642  s :     0.821642
      pz      :     0.046587  p :     0.153954
      px      :     0.042890
      py      :     0.064477
      dz2     :     0.004856  d :     0.030437
      dxz     :     0.001480
      dyz     :     0.008683
      dx2y2   :     0.006573
      dxy     :     0.008845



                      *****************************
                      * MAYER POPULATION ANALYSIS *
                      *****************************

  NA   - Mulliken gross atomic population
  ZA   - Total nuclear charge
  QA   - Mulliken gross atomic charge
  VA   - Mayer's total valence
  BVA  - Mayer's bonded valence
  FA   - Mayer's free valence

  ATOM       NA         ZA         QA         VA         BVA        FA
  0 C      6.3602     6.0000    -0.3602     3.9586     3.9586    -0.0000
  1 H      0.9099     1.0000     0.0901     1.0008     1.0008     0.0000
  2 H      0.9100     1.0000     0.0900     1.0008     1.0008    -0.0000
  3 H      0.9099     1.0000     0.0901     1.0009     1.0009    -0.0000
  4 H      0.9099     1.0000     0.0901     1.0008     1.0008     0.0000

  Mayer bond orders larger than 0.100000
B(  0-C ,  1-H ) :   0.9896 B(  0-C ,  2-H ) :   0.9896 B(  0-C ,  3-H ) :   0.9897 
B(  0-C ,  4-H ) :   0.9896 

-------
TIMINGS
-------

Total SCF time: 0 days 0 hours 0 min 2 sec 

Total time                  ....       2.691 sec
Sum of individual times     ....       2.587 sec  ( 96.1%)

SCF preparation             ....       1.525 sec  ( 56.7%)
Fock matrix formation       ....       0.990 sec  ( 36.8%)
  Startup                   ....       0.003 sec  (  0.3% of F)
  Split-RI-J                ....       0.038 sec  (  3.9% of F)
  Chain of spheres X        ....       0.722 sec  ( 72.9% of F)
  XC integration            ....       0.270 sec  ( 27.3% of F)
    XC Preparation          ....       0.000 sec  (  0.0% of XC)
    Basis function eval.    ....       0.078 sec  ( 29.0% of XC)
    Density eval.           ....       0.036 sec  ( 13.2% of XC)
    XC-Functional eval.     ....       0.023 sec  (  8.4% of XC)
    XC-Potential eval.      ....       0.050 sec  ( 18.6% of XC)
Diagonalization             ....       0.000 sec  (  0.0%)
Density matrix formation    ....       0.010 sec  (  0.4%)
Total Energy calculation    ....       0.005 sec  (  0.2%)
Population analysis         ....       0.005 sec  (  0.2%)
Orbital Transformation      ....       0.006 sec  (  0.2%)
Orbital Orthonormalization  ....       0.000 sec  (  0.0%)
DIIS solution               ....       0.027 sec  (  1.0%)
SOSCF solution              ....       0.018 sec  (  0.7%)
Finished LeanSCF after   2.7 sec

Maximum memory used throughout the entire LEANSCF-calculation: 7.0 MB


           ************************************************************
           *        Program running with 8 parallel MPI-processes     *
           *              working on a common directory               *
           ************************************************************

------------------------------------------------------------------------------
                                ORCA  MP2 
------------------------------------------------------------------------------

Freezing NCore=2 chemical core electrons

----------------------
RI-MP2 ENERGY+GRADIENT
----------------------
Dimension of the orbital basis            ...   87
Dimension of the AuxC basis               ...  196
Memory devoted to MP2                     ... 6000 MB   
Data format for matrix containers         ... DOUBLE
Compression type for matrix containers    ... UNCOMPRESSED
Scaling for aa/bb pairs                   ...   5.660e-02
Scaling for ab pairs                      ...   5.935e-01
Overall scaling of the MP2 energy         ...   1.000e+00

-----------------------
SHARK RI TRANSFORMATION
-----------------------

Number of basis functions                ...     87
Number of aux functions                  ...    196
Number of operators                      ...      1
Generation of IJK                        ... YES
Generation of IAK                        ... YES
Generation of ABK                        ... NO
Orbital Range Operator  0:    0-   4 to    5-  86

Aux basis identifier                     ...   AUXC
Contraction scheme used                  ... SEGMENTED
Do orthogonalization                     ... YES
All operator combinations                ... NO
Transpose (ia|K)                         ... NO
Integral generator used                  ... LIBINT
Starting integral generation + trafo... 
Half trafo (segmented) done. Total time =  0.0 sec. integrals=  0.0 sec trafo=  0.0 sec
Integral generation and half transformation done (  0.0 sec)

Reading or making V^(-1/2)          ... done (  0.0 sec)
Sorting IJK integrals               ... done (  0.0 sec)
Sorting IAK integrals               ... done (  0.0 sec)

SHARK RI integral transformation done. Total time =  0.0 sec.

Opening buffers                              ... done
Frozen core precalculation                   ... done

Starting loop over batches of integrals:

Operator 0  - window                       ... (  1-  4)x(  5- 86)
Operator 0  - Memory available             ...  6000 MB
Operator 0  - Memory needed per MO         ...   0.1 MB
Operator 0  - Number of orbitals per batch ... 1
Operator 0  - Number of batches            ... 1

OPERATOR  0   PASS   0:  MOs     1 ...    1 +    2 ...    2 +    3 ...    3 +    4 ...    4
  Reading integrals       ... ok
Closing buffer GIPV ( 0.00 GB; CompressionRatio= 1.00)
Time spent in pair loops =     0.007 sec
Deleting buffers (Ka|jb) ...done

-----------------------------------------------
 RI-MP2 CORRELATION ENERGY:     -0.108956017 Eh
-----------------------------------------------


---------------------
MP2 DENSITY FORMATION
---------------------

Completing the external part of the density      ... done
Storing the unrelaxed density                    ... done

Re-sorting 3-index density container for op 0    ... done
Computing external part of the Lagrangian        ... done
Calculating the xc-kernel                        ... done
Calculating G(D)                                 ... done
Completing the Lagrangian                        ... done
Solving the Z-vector equations                   ... Using XC Grid                  ... (opt.grid_cpscf.tmp) 
Recalculating density on grid  ... (opt.grho_cpscf0.tmp) done
Calculating the xc-kernel      ... (opt.fxc_cpscf0.tmp) done

-------------------
SHARK CP-SCF DRIVER
-------------------

Dimension of the orbital basis          ...     87
Dimension of the CPSCF-problem          ...    410
Number of operators                     ...      1
Max. number of iterations               ...    128
Convergence Tolerance                   ... 3.0e-05
Number of perturbations                 ...      1
Perturbation type                       ... REAL

----------------------------
POPLE LINEAR EQUATION SOLVER
----------------------------

  ITERATION   0:   ||err||_max =   1.9484e-02 (   0.1 sec)
  ITERATION   1:   ||err||_max =   1.5267e-03 (   0.1 sec)
  ITERATION   2:   ||err||_max =   1.3148e-04 (   0.1 sec)
  ITERATION   3:   ||err||_max =   9.4651e-06 (   0.1 sec)
done
Finalizing the relaxed density                   ... done
Transforming P to the AO basis                   ... done
Storing the relaxed density                      ... done

------------------------------------
ENERGY WEIGHTED DENSITY FINALIZATION
------------------------------------

Gathering the parts of the W-matrix              ... done
Forming the Z-density                            ... done
Transforming Z to the AO basis                   ... done
Calculating G(Z)                                 ... done
Finalizing the W-matrix                          ... done
Transforming W to the AO basis and storing       ... done

----------------------------------
MP2 DERIVATIVE INTEGRAL GENERATION
----------------------------------

Input SCF Electron Density              ... opt.scfp
Input Correlated Electron Density       ... opt.pmp2re
Input Energy Weighted Density           ... opt.wmp2.tmp

Nuclear repulsion gradient              ... done (  0.0 sec)
HCore & Overlap gradient  (SHARK)       ... done (  0.0 sec)
Two-electron RIJ gradient terms         ... done (  0.1 sec)

-----------------------------------------------------------
MP2 COSX Grid Generation
-----------------------------------------------------------

General Integration Accuracy     IntAcc      ... 4.871
Radial Grid Type                 RadialGrid  ... OptM3 with GC (2021)
Angular Grid (max. ang.)         AngularGrid ... 4 (Lebedev-302)
Angular grid pruning method      GridPruning ... 4 (adaptive)
Weight generation scheme         WeightScheme... mBecke (2022)
Basis function cutoff            BFCut       ... 1.0000e-12
Integration weight cutoff        WCut        ... 1.0000e-14
Partially contracted basis set               ... on
Rotationally invariant grid construction     ... off
Angular grids for H and He will be reduced by one unit

Total number of grid points                  ...    23536
Total number of batches                      ...      187
Average number of points per batch           ...      125
Average number of grid points per atom       ...     4707
UseSFitting                                  ... on
Two-electron COSX gradient terms        ... 
Integration Timings:
Total Time                  =     0.2 sec
Basis fcn evaluation        =     0.0 sec
Density evaluation          =     0.0 sec
A evaluation                =     0.2 sec
A derivative evaluation     =     0.0 sec
S-fit derivative evaluation =     0.0 sec
anal. over. der. evaluation =     0.0 sec
num. over. der. evaluation  =     0.0 sec
K(P) evaluation             =     0.0 sec
finalize                    =     0.0 sec

done (  0.2 sec)
DFT XC gradient                         ... done (  0.1 sec)
Empirical dispersion gradient           ... done (  0.0 sec)

                *********************************************
                * UNRELAXED MP2 DENSITY POPULATION ANALYSIS *
                *********************************************

------------------------------------------------------------------------------
                           ORCA POPULATION ANALYSIS
------------------------------------------------------------------------------
Input electron density              ... opt.pmp2ur
BaseName (.gbw .S,...)              ... opt

                    ********************************
                    * MULLIKEN POPULATION ANALYSIS *
                    ********************************

-----------------------
MULLIKEN ATOMIC CHARGES
-----------------------
   0 C :   -0.361470
   1 H :    0.090369
   2 H :    0.090359
   3 H :    0.090368
   4 H :    0.090375
Sum of atomic charges:   -0.0000000

--------------------------------
MULLIKEN REDUCED ORBITAL CHARGES
--------------------------------
  0 C s       :     3.125141  s :     3.125141
      pz      :     1.055504  p :     3.166492
      px      :     1.055495
      py      :     1.055492
      dz2     :     0.014405  d :     0.066571
      dxz     :     0.011687
      dyz     :     0.013489
      dx2y2   :     0.017598
      dxy     :     0.009392
      f0      :     0.000488  f :     0.003267
      f+1     :     0.000609
      f-1     :     0.000325
      f+2     :     0.000468
      f-2     :     0.000426
      f+3     :     0.000435
      f-3     :     0.000516
  1 H s       :     0.868203  s :     0.868203
      pz      :     0.010147  p :     0.039280
      px      :     0.018392
      py      :     0.010740
      dz2     :     0.000180  d :     0.002149
      dxz     :     0.000698
      dyz     :     0.000104
      dx2y2   :     0.000519
      dxy     :     0.000647
  2 H s       :     0.868220  s :     0.868220
      pz      :     0.013216  p :     0.039273
      px      :     0.012220
      py      :     0.013837
      dz2     :     0.000539  d :     0.002149
      dxz     :     0.000341
      dyz     :     0.000389
      dx2y2   :     0.000523
      dxy     :     0.000356
  3 H s       :     0.868196  s :     0.868196
      pz      :     0.017565  p :     0.039287
      px      :     0.011608
      py      :     0.010114
      dz2     :     0.000619  d :     0.002149
      dxz     :     0.000556
      dyz     :     0.000643
      dx2y2   :     0.000180
      dxy     :     0.000151
  4 H s       :     0.868194  s :     0.868194
      pz      :     0.011444  p :     0.039282
      px      :     0.010154
      py      :     0.017685
      dz2     :     0.000362  d :     0.002149
      dxz     :     0.000151
      dyz     :     0.000580
      dx2y2   :     0.000424
      dxy     :     0.000631


                     *******************************
                     * LOEWDIN POPULATION ANALYSIS *
                     *******************************

----------------------
LOEWDIN ATOMIC CHARGES
----------------------
   0 C :    0.026495
   1 H :   -0.006623
   2 H :   -0.006627
   3 H :   -0.006623
   4 H :   -0.006623

-------------------------------
LOEWDIN REDUCED ORBITAL CHARGES
-------------------------------
  0 C s       :     2.699718  s :     2.699718
      pz      :     1.017636  p :     3.052905
      px      :     1.017635
      py      :     1.017634
      dz2     :     0.043666  d :     0.198939
      dxz     :     0.033988
      dyz     :     0.040416
      dx2y2   :     0.055067
      dxy     :     0.025802
      f0      :     0.003156  f :     0.021942
      f+1     :     0.004984
      f-1     :     0.001220
      f+2     :     0.002558
      f-2     :     0.003775
      f+3     :     0.002644
      f-3     :     0.003604
  1 H s       :     0.817369  s :     0.817369
      pz      :     0.043744  p :     0.157930
      px      :     0.068653
      py      :     0.045534
      dz2     :     0.002522  d :     0.031325
      dxz     :     0.010001
      dyz     :     0.000851
      dx2y2   :     0.008364
      dxy     :     0.009586
  2 H s       :     0.817371  s :     0.817371
      pz      :     0.053030  p :     0.157931
      px      :     0.050011
      py      :     0.054890
      dz2     :     0.007548  d :     0.031325
      dxz     :     0.004992
      dyz     :     0.006117
      dx2y2   :     0.007356
      dxy     :     0.005312
  3 H s       :     0.817368  s :     0.817368
      pz      :     0.066142  p :     0.157930
      px      :     0.048148
      py      :     0.043640
      dz2     :     0.009912  d :     0.031325
      dxz     :     0.008642
      dyz     :     0.009139
      dx2y2   :     0.002077
      dxy     :     0.001555
  4 H s       :     0.817368  s :     0.817368
      pz      :     0.047658  p :     0.157930
      px      :     0.043762
      py      :     0.066510
      dz2     :     0.004980  d :     0.031325
      dxz     :     0.001572
      dyz     :     0.008936
      dx2y2   :     0.006874
      dxy     :     0.008962


                      *****************************
                      * MAYER POPULATION ANALYSIS *
                      *****************************

  NA   - Mulliken gross atomic population
  ZA   - Total nuclear charge
  QA   - Mulliken gross atomic charge
  VA   - Mayer's total valence
  BVA  - Mayer's bonded valence
  FA   - Mayer's free valence

  ATOM       NA         ZA         QA         VA         BVA        FA
  0 C      6.3615     6.0000    -0.3615     4.0226     3.8602     0.1623
  1 H      0.9096     1.0000     0.0904     1.0084     0.9753     0.0331
  2 H      0.9096     1.0000     0.0904     1.0084     0.9752     0.0331
  3 H      0.9096     1.0000     0.0904     1.0085     0.9753     0.0331
  4 H      0.9096     1.0000     0.0904     1.0084     0.9753     0.0331

  Mayer bond orders larger than 0.100000
B(  0-C ,  1-H ) :   0.9650 B(  0-C ,  2-H ) :   0.9650 B(  0-C ,  3-H ) :   0.9651 
B(  0-C ,  4-H ) :   0.9651 


                *******************************************
                * RELAXED MP2 DENSITY POPULATION ANALYSIS *
                *******************************************

------------------------------------------------------------------------------
                           ORCA POPULATION ANALYSIS
------------------------------------------------------------------------------
Input electron density              ... opt.pmp2re
BaseName (.gbw .S,...)              ... opt

                    ********************************
                    * MULLIKEN POPULATION ANALYSIS *
                    ********************************

-----------------------
MULLIKEN ATOMIC CHARGES
-----------------------
   0 C :   -0.383793
   1 H :    0.095953
   2 H :    0.095914
   3 H :    0.095964
   4 H :    0.095962
Sum of atomic charges:   -0.0000000

--------------------------------
MULLIKEN REDUCED ORBITAL CHARGES
--------------------------------
  0 C s       :     3.145309  s :     3.145309
      pz      :     1.057989  p :     3.173944
      px      :     1.057980
      py      :     1.057975
      dz2     :     0.013237  d :     0.061277
      dxz     :     0.010792
      dyz     :     0.012413
      dx2y2   :     0.016107
      dxy     :     0.008728
      f0      :     0.000487  f :     0.003263
      f+1     :     0.000608
      f-1     :     0.000325
      f+2     :     0.000468
      f-2     :     0.000426
      f+3     :     0.000435
      f-3     :     0.000515
  1 H s       :     0.864022  s :     0.864022
      pz      :     0.010303  p :     0.037938
      px      :     0.016861
      py      :     0.010775
      dz2     :     0.000167  d :     0.002087
      dxz     :     0.000694
      dyz     :     0.000104
      dx2y2   :     0.000488
      dxy     :     0.000634
  2 H s       :     0.864060  s :     0.864060
      pz      :     0.012746  p :     0.037938
      px      :     0.011953
      py      :     0.013240
      dz2     :     0.000536  d :     0.002087
      dxz     :     0.000328
      dyz     :     0.000365
      dx2y2   :     0.000518
      dxy     :     0.000340
  3 H s       :     0.864008  s :     0.864008
      pz      :     0.016201  p :     0.037941
      px      :     0.011464
      py      :     0.010277
      dz2     :     0.000587  d :     0.002086
      dxz     :     0.000532
      dyz     :     0.000639
      dx2y2   :     0.000177
      dxy     :     0.000151
  4 H s       :     0.864013  s :     0.864013
      pz      :     0.011335  p :     0.037939
      px      :     0.010308
      py      :     0.016297
      dz2     :     0.000356  d :     0.002086
      dxz     :     0.000151
      dyz     :     0.000557
      dx2y2   :     0.000395
      dxy     :     0.000628


                     *******************************
                     * LOEWDIN POPULATION ANALYSIS *
                     *******************************

----------------------
LOEWDIN ATOMIC CHARGES
----------------------
   0 C :    0.020829
   1 H :   -0.005207
   2 H :   -0.005211
   3 H :   -0.005206
   4 H :   -0.005206

-------------------------------
LOEWDIN REDUCED ORBITAL CHARGES
-------------------------------
  0 C s       :     2.700838  s :     2.700838
      pz      :     1.020641  p :     3.061921
      px      :     1.020640
      py      :     1.020639
      dz2     :     0.042656  d :     0.194361
      dxz     :     0.033214
      dyz     :     0.039485
      dx2y2   :     0.053778
      dxy     :     0.025228
      f0      :     0.003169  f :     0.022051
      f+1     :     0.005006
      f-1     :     0.001229
      f+2     :     0.002565
      f-2     :     0.003807
      f+3     :     0.002657
      f-3     :     0.003619
  1 H s       :     0.815755  s :     0.815755
      pz      :     0.043973  p :     0.157864
      px      :     0.068179
      py      :     0.045712
      dz2     :     0.002569  d :     0.031588
      dxz     :     0.010034
      dyz     :     0.000853
      dx2y2   :     0.008468
      dxy     :     0.009664
  2 H s       :     0.815758  s :     0.815758
      pz      :     0.052997  p :     0.157864
      px      :     0.050063
      py      :     0.054805
      dz2     :     0.007560  d :     0.031588
      dxz     :     0.005058
      dyz     :     0.006213
      dx2y2   :     0.007357
      dxy     :     0.005399
  3 H s       :     0.815754  s :     0.815754
      pz      :     0.065739  p :     0.157864
      px      :     0.048253
      py      :     0.043872
      dz2     :     0.010036  d :     0.031588
      dxz     :     0.008749
      dyz     :     0.009160
      dx2y2   :     0.002066
      dxy     :     0.001578
  4 H s       :     0.815754  s :     0.815754
      pz      :     0.047777  p :     0.157864
      px      :     0.043990
      py      :     0.066096
      dz2     :     0.005001  d :     0.031588
      dxz     :     0.001585
      dyz     :     0.009028
      dx2y2   :     0.006971
      dxy     :     0.009004


                      *****************************
                      * MAYER POPULATION ANALYSIS *
                      *****************************

  NA   - Mulliken gross atomic population
  ZA   - Total nuclear charge
  QA   - Mulliken gross atomic charge
  VA   - Mayer's total valence
  BVA  - Mayer's bonded valence
  FA   - Mayer's free valence

  ATOM       NA         ZA         QA         VA         BVA        FA
  0 C      6.3838     6.0000    -0.3838     4.0161     3.8539     0.1622
  1 H      0.9040     1.0000     0.0960     1.0067     0.9736     0.0331
  2 H      0.9041     1.0000     0.0959     1.0067     0.9736     0.0331
  3 H      0.9040     1.0000     0.0960     1.0067     0.9736     0.0331
  4 H      0.9040     1.0000     0.0960     1.0067     0.9736     0.0331

  Mayer bond orders larger than 0.100000
B(  0-C ,  1-H ) :   0.9635 B(  0-C ,  2-H ) :   0.9635 B(  0-C ,  3-H ) :   0.9635 
B(  0-C ,  4-H ) :   0.9635 


-------
TIMINGS
-------

Total time                :    1.095 sec
Integral trafo            :    0.057 sec (  5.2%)
FC preparation            :    0.020 sec (  1.8%)
I/O of integrals          :    0.003 sec (  0.2%)
V**(-1/2)                 :    0.009 sec (  0.8%)
L(virtual)                :    0.004 sec (  0.3%)
XC kernel                 :    0.010 sec (  0.9%)
G(D)                      :    0.107 sec (  9.8%)
G(Z)                      :    0.105 sec (  9.6%)
Z-vector solution         :    0.239 sec ( 21.9%)
3-index derivative        :    0.019 sec (  1.8%)
2-index derivative        :    0.021 sec (  1.9%)
Fock matrix gradient      :    0.407 sec ( 37.2%)


---------------------------------------
MP2 TOTAL ENERGY:      -40.443913486 Eh
---------------------------------------

The final MP2 gradient
  0:  -0.00000124  -0.00000064  -0.00000263
  1:  -0.01283503  -0.00353398   0.00083777
  2:   0.00647925  -0.00860921  -0.00786544
  3:   0.00545067  -0.00012974   0.01217564
  4:   0.00090614   0.01227389  -0.00514598

-----------------------------------
NORM OF THE MP2 GRADIENT:  0.026680
-----------------------------------

Maximum memory used throughout the entire MP2-calculation: 26.6 MB


-------------------------------------------------------------------------------
                          DFT DISPERSION CORRECTION                            
                                                                               
                                DFTD4 V3.4.0                                   
-------------------------------------------------------------------------------
The REV-DSD-PBEP86-2021 functional is recognized
A user input s6-coefficient scaling factor has been recognized
A user input a1-coefficient scaling factor has been recognized
A user input s8-coefficient scaling factor has been recognized
A user input a2-coefficient scaling factor has been recognized
A user input s9-coefficient scaling factor has been recognized
Active option DFTDOPT                   ...         5   

-------------------------   ----------------
Dispersion correction           -0.000714062
-------------------------   ----------------


-------------------------   --------------------
FINAL SINGLE POINT ENERGY       -40.444627547955
-------------------------   --------------------

------------------------------------------------------------------------------
                         ORCA GEOMETRY RELAXATION STEP
------------------------------------------------------------------------------

Reading the OPT-File                    .... done
Getting information on internals        .... done
Copying old internal coords+grads       .... done
Making the new internal coordinates     .... (2022 redundants) done
Validating the new internal coordinates .... (2022 redundants) done
Calculating the B-matrix                .... done
Calculating the G,G- and P matrices     .... done
Transforming gradient to internals      .... done
Projecting the internal gradient        .... done
Number of atoms                         ....   5
Number of internal coordinates          ....  10
Current Energy                          ....   -40.444627548 Eh
Current gradient norm                   ....     0.026679888 Eh/bohr
Maximum allowed component of the step   ....  0.300
Current trust radius                    ....  0.300
Evaluating the initial hessian          ....  (Almloef) done
Projecting the Hessian                  .... done
Forming the augmented Hessian           .... done
Diagonalizing the augmented Hessian     .... done
Last element of RFO vector              ....  0.997660835
Lowest eigenvalues of augmented Hessian:
 -0.001828068  0.297665318  0.297665319  0.297665330  0.297665341
Length of the computed step             ....  0.068518583
The final length of the internal step   ....  0.068518583
Converting the step to Cartesian space:
 Initial RMS(Int)=    0.0216674783
Transforming coordinates:
 Iter   0:  RMS(Cart)=    0.0176914220 RMS(Int)=    0.0216674783
done
Storing new coordinates                 .... done

                                .--------------------.
          ----------------------|Geometry convergence|-------------------------
          Item                value                   Tolerance       Converged
          ---------------------------------------------------------------------
          RMS gradient        0.0084369213            0.0001000000      NO
          MAX gradient        0.0133407796            0.0003000000      NO
          RMS step            0.0216674783            0.0020000000      NO
          MAX step            0.0342614431            0.0040000000      NO
          -------------------------------------------------------------------------
          ........................................................
          Max(Bonds)      0.0181      Max(Angles)    0.00
          Max(Dihed)        0.00      Max(Improp)    0.00
          ---------------------------------------------------------------------

The optimization has not yet converged - more geometry cycles are needed


    ---------------------------------------------------------------------------
                         Redundant Internal Coordinates
                            (Angstroem and degrees)

        Definition                    Value    dE/dq     Step     New-Value
    ----------------------------------------------------------------------------
     1. B(H   1,C   0)                1.0700 -0.013339  0.0181    1.0881   
     2. B(H   2,C   0)                1.0700 -0.013340  0.0181    1.0881   
     3. B(H   3,C   0)                1.0700 -0.013341  0.0181    1.0881   
     4. B(H   4,C   0)                1.0700 -0.013340  0.0181    1.0881   
     5. A(H   1,C   0,H   3)          109.47  0.000001   -0.00    109.47   
     6. A(H   2,C   0,H   3)          109.47 -0.000000    0.00    109.47   
     7. A(H   1,C   0,H   4)          109.47 -0.000000    0.00    109.47   
     8. A(H   2,C   0,H   4)          109.47 -0.000001    0.00    109.47   
     9. A(H   3,C   0,H   4)          109.47  0.000001   -0.00    109.47   
    10. A(H   1,C   0,H   2)          109.47 -0.000001    0.00    109.47   
    ----------------------------------------------------------------------------

Geometry step timings:
Preparation and reading OPT file:      0.000 s ( 2.167 %)
Internal coordinates            :      0.000 s ( 1.970 %)
B/P matrices and projection     :      0.000 s ( 7.291 %)
Hessian update/contruction      :      0.000 s ( 9.557 %)
Making the step                 :      0.001 s (58.424 %)
Converting the step to Cartesian:      0.000 s ( 2.463 %)
Storing new data                :      0.000 s ( 2.562 %)
Checking convergence            :      0.000 s ( 2.956 %)
Final printing                  :      0.000 s (12.611 %)
Total time                      :      0.001 s

Time for energy+gradient        :     11.064 s
Time for complete geometry iter :     13.900 s

         *************************************************************
         *                GEOMETRY OPTIMIZATION CYCLE   2            *
         *************************************************************
---------------------------------
CARTESIAN COORDINATES (ANGSTROEM)
---------------------------------
  C     -1.720869    2.845717   -1.632415
  H     -0.673848    3.134005   -1.700674
  H     -2.249353    3.547956   -0.990862
  H     -2.165487    2.856354   -2.625506
  H     -1.794790    1.844549   -1.212627

----------------------------
CARTESIAN COORDINATES (A.U.)
----------------------------
  NO LB      ZA    FRAG     MASS         X           Y           Z
   0 C     6.0000    0    12.011   -3.251971    5.377625   -3.084818
   1 H     1.0000    0     1.008   -1.273388    5.922410   -3.213808
   2 H     1.0000    0     1.008   -4.250661    6.704665   -1.872457
   3 H     1.0000    0     1.008   -4.092178    5.397727   -4.961488
   4 H     1.0000    0     1.008   -3.391661    3.485692   -2.291533

--------------------------------
INTERNAL COORDINATES (ANGSTROEM)
--------------------------------
 C      0   0   0     0.000000000000     0.00000000     0.00000000
 H      1   0   0     1.088127930247     0.00000000     0.00000000
 H      1   2   0     1.088129727456   109.47139089     0.00000000
 H      1   2   3     1.088130382874   109.47102678   120.00007491
 H      1   2   3     1.088128764742   109.47128207   239.99976440

---------------------------
INTERNAL COORDINATES (A.U.)
---------------------------
 C      0   0   0     0.000000000000     0.00000000     0.00000000
 H      1   0   0     2.056263786838     0.00000000     0.00000000
 H      1   2   0     2.056267183070   109.47139089     0.00000000
 H      1   2   3     2.056268421631   109.47102678   120.00007491
 H      1   2   3     2.056265363804   109.47128207   239.99976440



           ************************************************************
           *        Program running with 8 parallel MPI-processes     *
           *              working on a common directory               *
           ************************************************************
------------------------------------------------------------------------------
                   ___                                                        
                  /   \      - P O W E R E D   B Y -                         
                 /     \                                                     
                 |  |  |   _    _      __       _____    __    __             
                 |  |  |  | |  | |    /  \     |  _  \  |  |  /  |          
                  \  \/   | |  | |   /    \    | | | |  |  | /  /          
                 / \  \   | |__| |  /  /\  \   | |_| |  |  |/  /          
                |  |  |   |  __  | /  /__\  \  |    /   |      \           
                |  |  |   | |  | | |   __   |  |    \   |  |\   \          
                \     /   | |  | | |  |  |  |  | |\  \  |  | \   \       
                 \___/    |_|  |_| |__|  |__|  |_| \__\ |__|  \__/        
                                                                              
                      - O R C A' S   B I G   F R I E N D -                    
                                      &                                       
                       - I N T E G R A L  F E E D E R -                       
                                                                              
 v1 FN, 2020, v2 2021, v3 2022-2024                                           
------------------------------------------------------------------------------


----------------------
SHARK INTEGRAL PACKAGE
----------------------

Number of atoms                             ...      5
Number of basis functions                   ...     87
Number of shells                            ...     35
Maximum angular momentum                    ...      3
Integral batch strategy                     ... SHARK/LIBINT Hybrid
RI-J (if used) integral strategy            ... SPLIT-RIJ (Revised 2003 algorithm where possible)
Printlevel                                  ...      1
Contraction scheme used                     ... SEGMENTED contraction
Prescreening option                         ... SCHWARTZ
   Thresh                                   ... 1.000e-12
   Tcut                                     ... 1.000e-14
   Tpresel                                  ... 1.000e-14 
Coulomb Range Separation                    ... NOT USED
Exchange Range Separation                   ... NOT USED
Multipole approximations                    ... NOT USED
Finite Nucleus Model                        ... NOT USED
CABS basis                                  ... NOT available
Auxiliary Coulomb fitting basis             ... AVAILABLE
   # of basis functions in Aux-J            ...     93
   # of shells in Aux-J                     ...     35
   Maximum angular momentum in Aux-J        ...      4
[...]
                           ORCA NUMERICAL FREQUENCIES
                              (8-process run)
----------------------------------------------------------------------------

Number of atoms                ... 5
Central differences            ... used
Translation invariance         ... used
Number of displacements        ... 30 - 6
Numerical increment            ... 5.000e-03 bohr
IR-spectrum generation         ... on
Raman-spectrum generation      ... off
Surface Crossing Hessian       ... off

The output will be reduced. Please look at the following files:
SCF program output             ... >opt.lastscf
Integral program output        ... >opt.lastint
Gradient program output        ... >opt.lastgrad
Dipole moment program output   ... >opt.lastmom

List of participating nodes    ...  opt.hostnames

	<< Calculating gradient on displaced geometry   7 (of  24) >>
	<< Calculating gradient on displaced geometry   6 (of  24) >>
	<< Calculating gradient on displaced geometry   5 (of  24) >>
	<< Calculating gradient on displaced geometry   8 (of  24) >>
	<< Calculating gradient on displaced geometry   1 (of  24) >>
	<< Calculating gradient on displaced geometry   3 (of  24) >>
	<< Calculating gradient on displaced geometry   4 (of  24) >>
	<< Calculating gradient on displaced geometry   2 (of  24) >>
	<< Calculating gradient on displaced geometry  13 (of  24) >>
	<< Calculating gradient on displaced geometry  11 (of  24) >>
	<< Calculating gradient on displaced geometry   9 (of  24) >>
	<< Calculating gradient on displaced geometry  12 (of  24) >>
	<< Calculating gradient on displaced geometry  10 (of  24) >>
	<< Calculating gradient on displaced geometry  14 (of  24) >>
	<< Calculating gradient on displaced geometry  16 (of  24) >>
	<< Calculating gradient on displaced geometry  15 (of  24) >>
	<< Calculating gradient on displaced geometry  18 (of  24) >>
	<< Calculating gradient on displaced geometry  21 (of  24) >>
	<< Calculating gradient on displaced geometry  20 (of  24) >>
	<< Calculating gradient on displaced geometry  19 (of  24) >>
	<< Calculating gradient on displaced geometry  17 (of  24) >>
	<< Calculating gradient on displaced geometry  22 (of  24) >>
	<< Calculating gradient on displaced geometry  23 (of  24) >>
	<< Calculating gradient on displaced geometry  24 (of  24) >>

-----------------------
VIBRATIONAL FREQUENCIES
-----------------------

Scaling factor for frequencies =  1.000000000  (already applied!)

     0:       0.00 cm**-1
     1:       0.00 cm**-1
     2:       0.00 cm**-1
     3:       0.00 cm**-1
     4:       0.00 cm**-1
     5:       0.00 cm**-1
     6:    1352.23 cm**-1
     7:    1352.24 cm**-1
     8:    1352.27 cm**-1
     9:    1573.99 cm**-1
    10:    1574.02 cm**-1
    11:    3047.09 cm**-1
    12:    3164.89 cm**-1
    13:    3164.90 cm**-1
    14:    3164.94 cm**-1


------------
NORMAL MODES
------------

These modes are the Cartesian displacements weighted by the diagonal matrix
M(i,i)=1/sqrt(m[i]) where m[i] is the mass of the displaced atom
Thus, these vectors are normalized but *not* orthogonal

                  0          1          2          3          4          5    
      0       0.000000   0.000000   0.000000   0.000000   0.000000   0.000000
      1       0.000000   0.000000   0.000000   0.000000   0.000000   0.000000
      2       0.000000   0.000000   0.000000   0.000000   0.000000   0.000000
      3       0.000000   0.000000   0.000000   0.000000   0.000000   0.000000
      4       0.000000   0.000000   0.000000   0.000000   0.000000   0.000000
      5       0.000000   0.000000   0.000000   0.000000   0.000000   0.000000
      6       0.000000   0.000000   0.000000   0.000000   0.000000   0.000000
      7       0.000000   0.000000   0.000000   0.000000   0.000000   0.000000
      8       0.000000   0.000000   0.000000   0.000000   0.000000   0.000000
      9       0.000000   0.000000   0.000000   0.000000   0.000000   0.000000
     10       0.000000   0.000000   0.000000   0.000000   0.000000   0.000000
     11       0.000000   0.000000   0.000000   0.000000   0.000000   0.000000
     12       0.000000   0.000000   0.000000   0.000000   0.000000   0.000000
     13       0.000000   0.000000   0.000000   0.000000   0.000000   0.000000
     14       0.000000   0.000000   0.000000   0.000000   0.000000   0.000000
                  6          7          8          9         10         11    
      0       0.063507  -0.100220  -0.039372   0.000005   0.000010  -0.000019
      1      -0.052133  -0.068612   0.090564   0.000000  -0.000003  -0.000016
      2      -0.094215  -0.029590  -0.076652   0.000003   0.000005   0.000011
      3      -0.022187  -0.119081   0.141672  -0.025123  -0.133829  -0.480901
      4       0.330342   0.165469  -0.451025  -0.026878   0.481394  -0.132420
      5       0.436753   0.182319   0.373591  -0.498663  -0.019235   0.031355
      6       0.017315   0.519610   0.102842  -0.188748   0.394187   0.242857
      7      -0.178896   0.284741  -0.321491  -0.381593   0.016089  -0.322720
      8       0.061709   0.100234   0.476627   0.262212   0.307105  -0.294843
      9      -0.442188   0.331463  -0.007246   0.411320   0.197650   0.204283
     10       0.255190   0.335228  -0.432971   0.218531  -0.449681  -0.004875
     11       0.153168  -0.198537  -0.070795  -0.181810  -0.093297   0.456317
     12      -0.309674   0.462201   0.231878  -0.197504  -0.458124   0.033985
     13       0.214561   0.032122   0.126359   0.189938  -0.047766   0.460205
     14       0.471002   0.268569   0.133940   0.418220  -0.194633  -0.192957
                 12         13         14    
      0       0.025653  -0.029742   0.083149
      1       0.087153  -0.005442  -0.028834
      2      -0.014247  -0.086845  -0.026671
      3      -0.443642   0.220637  -0.665228
      4      -0.104708   0.061357  -0.194456
      5       0.026188  -0.033736   0.038748
      6       0.170471  -0.194045  -0.329872
      7      -0.200101   0.248046   0.456105
      8      -0.203260   0.208771   0.416610
      9       0.018853   0.351544  -0.020715
     10       0.018664  -0.009752  -0.005352
     11       0.026527   0.780753  -0.092518
     12      -0.051359  -0.023738   0.025042
     13      -0.752342  -0.234801   0.087275
     14       0.320306   0.079029  -0.045043


-----------
IR SPECTRUM
-----------

 Mode   freq       eps      Int      T**2         TX        TY        TZ
       cm**-1   L/(mol*cm) km/mol    a.u.
----------------------------------------------------------------------------
  6:   1352.23   0.002233   11.28  0.000515  (-0.011535  0.009469  0.017104)
  7:   1352.24   0.002230   11.27  0.000515  ( 0.018191  0.012450  0.005367)
  8:   1352.27   0.002233   11.28  0.000515  ( 0.007141 -0.016449  0.013918)
  9:   1573.99   0.000000    0.00  0.000000  ( 0.000006  0.000000 -0.000006)
 10:   1574.02   0.000000    0.00  0.000000  ( 0.000021  0.000000  0.000002)
 11:   3047.09   0.000000    0.00  0.000000  (-0.000003 -0.000005  0.000009)
 12:   3164.89   0.004507   22.78  0.000444  ( 0.005881  0.019978 -0.003270)
 13:   3164.90   0.004505   22.77  0.000444  (-0.006808 -0.001243 -0.019908)
 14:   3164.94   0.004507   22.78  0.000444  ( 0.019058 -0.006616 -0.006115)

* The epsilon (eps) is given for a Dirac delta lineshape.
** The dipole moment derivative (T) already includes vibrational overlap.

The first frequency considered to be a vibration is 6
The total number of vibrations considered is 9


--------------------------
THERMOCHEMISTRY AT 298.15K
--------------------------

Temperature         ...   298.15 K
Pressure            ...     1.00 atm
Total Mass          ...    16.04 AMU
Quasi RRHO          ...     True
Cut-Off Frequency   ...     1.00 cm^-1

Throughout the following assumptions are being made:
  (1) The electronic state is orbitally nondegenerate
  (2) There are no thermally accessible electronically excited states
  (3) Hindered rotations indicated by low frequency modes are not
      treated as such but are treated as vibrations and this may
      cause some error
  (4) All equations used are the standard statistical mechanics
      equations for an ideal gas
  (5) All vibrations are strictly harmonic

freq.    1352.23  E(vib)   ...       0.01 
freq.    1352.24  E(vib)   ...       0.01 
freq.    1352.27  E(vib)   ...       0.01 
freq.    1573.99  E(vib)   ...       0.00 
freq.    1574.02  E(vib)   ...       0.00 
freq.    3047.09  E(vib)   ...       0.00 
freq.    3164.89  E(vib)   ...       0.00 
freq.    3164.90  E(vib)   ...       0.00 
freq.    3164.94  E(vib)   ...       0.00 

------------
INNER ENERGY
------------

The inner energy is: U= E(el) + E(ZPE) + E(vib) + E(rot) + E(trans)
    E(el)   - is the total energy from the electronic structure calculation
              = E(kin-el) + E(nuc-el) + E(el-el) + E(nuc-nuc)
    E(ZPE)  - the the zero temperature vibrational energy from the frequency calculation
    E(vib)  - the the finite temperature correction to E(ZPE) due to population
              of excited vibrational states
    E(rot)  - is the rotational thermal energy
    E(trans)- is the translational thermal energy

Summary of contributions to the inner energy U:
Electronic energy                ...    -40.44556456 Eh
Zero point energy                ...      0.04498599 Eh      28.23 kcal/mol
Thermal vibrational correction   ...      0.00003436 Eh       0.02 kcal/mol
Thermal rotational correction    ...      0.00141627 Eh       0.89 kcal/mol
Thermal translational correction ...      0.00141627 Eh       0.89 kcal/mol
-----------------------------------------------------------------------
Total thermal energy                    -40.39771166 Eh


Summary of corrections to the electronic energy:
(perhaps to be used in another calculation)
Total thermal correction                  0.00286691 Eh       1.80 kcal/mol
Non-thermal (ZPE) correction              0.04498599 Eh      28.23 kcal/mol
-----------------------------------------------------------------------
Total correction                          0.04785289 Eh      30.03 kcal/mol


--------
ENTHALPY
--------

The enthalpy is H = U + kB*T
                kB is Boltzmann's constant
Total thermal energy              ...    -40.39771166 Eh 
Thermal Enthalpy correction       ...      0.00094421 Eh       0.59 kcal/mol
-----------------------------------------------------------------------
Total Enthalpy                    ...    -40.39676745 Eh


Note: Rotational entropy computed according to Herzberg 
Infrared and Raman Spectra, Chapter V,1, Van Nostrand Reinhold, 1945 
Point Group:  Td, Symmetry Number:  12  
Rotational constants in cm-1:     5.289090     5.289072     5.289056 

Vibrational entropy computed according to the QRRHO of S. Grimme
Chem.Eur.J. 2012 18 9955 using a reference frequency of 100.0 cm-1


-------
ENTROPY
-------

The entropy contributions are T*S = T*(S(el)+S(vib)+S(rot)+S(trans))
     S(el)   - electronic entropy
     S(vib)  - vibrational entropy
     S(rot)  - rotational entropy
     S(trans)- translational entropy
The entropies will be listed as multiplied by the temperature to get
units of energy

Electronic entropy                ...      0.00000000 Eh      0.00 kcal/mol
Vibrational entropy               ...      0.00003948 Eh      0.02 kcal/mol
Rotational entropy                ...      0.00480561 Eh      3.02 kcal/mol
Translational entropy             ...      0.01627961 Eh     10.22 kcal/mol
-----------------------------------------------------------------------
Final entropy term                ...      0.02112470 Eh     13.26 kcal/mol

In case the symmetry of your molecule has not been determined correctly
or in case you have a reason to use a different symmetry number we print 
out the resulting rotational entropy values for sn=1,12:

 non-linear molecules -----------------------------------
|  sn= 1 | S(rot)=       0.00715181 Eh      4.49 kcal/mol|
|  sn= 2 | S(rot)=       0.00649735 Eh      4.08 kcal/mol|
|  sn= 3 | S(rot)=       0.00611452 Eh      3.84 kcal/mol|
|  sn= 4 | S(rot)=       0.00584290 Eh      3.67 kcal/mol|
|  sn= 5 | S(rot)=       0.00563221 Eh      3.53 kcal/mol|
|  sn= 6 | S(rot)=       0.00546006 Eh      3.43 kcal/mol|
|  sn= 7 | S(rot)=       0.00531452 Eh      3.33 kcal/mol|
|  sn= 8 | S(rot)=       0.00518844 Eh      3.26 kcal/mol|
|  sn= 9 | S(rot)=       0.00507723 Eh      3.19 kcal/mol|
|  sn=10 | S(rot)=       0.00497775 Eh      3.12 kcal/mol|
|  sn=11 | S(rot)=       0.00488776 Eh      3.07 kcal/mol|
|  sn=12 | S(rot)=       0.00480561 Eh      3.02 kcal/mol|
 linear molecules ---------------------------------------
|  Dinfh | S(rot)=       0.00375314 Eh      2.36 kcal/mol|
|  Cinfv | S(rot)=       0.00440760 Eh      2.77 kcal/mol|
 --------------------------------------------------------


-------------------
GIBBS FREE ENERGY
-------------------

The Gibbs free energy is G = H - T*S

Total enthalpy                    ...    -40.39676745 Eh 
Total entropy correction          ...     -0.02112470 Eh    -13.26 kcal/mol
-----------------------------------------------------------------------
Final Gibbs free energy         ...    -40.41789215 Eh

For completeness - the Gibbs free energy minus the electronic energy
G-E(el)                           ...      0.02767241 Eh     17.36 kcal/mol



--------------------------------
SUGGESTED CITATIONS FOR THIS RUN
--------------------------------

Below you find a list of papers that are relevant to this ORCA run
We neither can nor want to force you to cite these papers, but we appreciate if you do
You receive ORCA, which is the product of decades of hard work by many enthusiastic individuals, for free
The only thing we kindly ask in return is that you cite our papers,
We deeply appreciate it, if you show your appreciation for ORCA by not just citing the generic ORCA reference.

Please note that relegating all ORCA citations to the supporting information does *not* help us.
SI sections are not indexed - citations you put there will not count into any citation statistics
But we need these citations in order to attract the funding resources that allow us to do what we are doing

Therefore, if you are a happy ORCA user, please consider citing a few of the papers listed below in the main body of your paper

In addition to the list printed below, the program has created the file opt.bibtex that contains the list in bibtex format
You can import this file easily into all common literature databanks and citation aid programs

It goes without saying that in many instances, there are alternative algorithms to achieve similar
results as the ones you have gotten from ORCA. It is, of course, also the case that in some instances
ORCA just re-implements algorithms worked out by others. We are fully aware of that and we are also
fully appreciative of our colleagues work. Hence this citation list should not be read as indicating
that the listed papers, which are focused on our own work, are the only ones worth citing. It simply
meant to make it easier for users to cite ORCA specific papers. It is not a substitute for doing your
own literature research and citing the relevant literature in a scientifically appropriate manner.

List of essential papers. We consider these as the minimum necessary citations

  1. Neese, F.
     Software update: the ORCA program system, version 6.0
     WIRES Comput. Molec. Sci. 2025 15(1), e70019
     doi.org/10.1002/wcms.70019

List of papers to cite with high priority. The work reported in these papers was absolutely
necessary for this run to complete.
Our perspective: the developers of density functionals and basis sets usually get cited in chemistry papers
Good! But without the algorithms to do something with them, the functionals or basis sets would not do anything.
Hence, in our opinion, the algorithm design and method developments papers are equally worthy of getting cited

  1. Neese, F.
     An improvement of the resolution of the identity approximation for the formation of the Coulomb matrix
     J. Comp. Chem. 2003 24(14), 1740-1747
     doi.org/10.1002/jcc.10318
  2. Neese, F.; Schwabe, T.; Grimme, S.
     Analytic derivatives for perturbatively corrected 'double hybrid' density functionals: Theory, implementation, and applications
     J. Chem. Phys. 2007 126(12), Art. No. 124115
     doi.org/10.1063/1.2712433
  3. Neese, F.; Wennmohs, F.; Hansen, A.; Becker, U.
     Efficient, approximate and parallel Hartree-Fock and hybrid DFT calculations. A 'chain-of-spheres' algorithm for the Hartree-Fock exchange
     Chem. Phys. 2009 356(1-3), 98-109
     doi.org/10.1016/j.chemphys.2008.10.036
  4. Kossmann, S.; Neese, F.
     Efficient Structure Optimization with Second-Order Many-Body Perturbation Theory: The RIJCOSX-MP2 Method
     J. Theo. Comp. Chem. 2010 6 , 2325-2338
     doi.org/10.1021/ct100199k
  5. Caldeweyher, E.; Bannwarth, C.; Grimme, S.
     Extension of the D3 dispersion coefficient model
     J. Chem. Phys. 2017 147 , 034112
     doi.org/10.1063/1.4993215
  6. Caldeweyher, E.; Ehlert, S.; Hansen, A.; Neugebauer, H.; Spicher, S.; Bannwarth, C.; Grimme, S.
     A generally applicable atomic-charge dependent London dispersion correction
     J. Chem. Phys. 2019 150 , 154122
     doi.org/10.1063/1.5090222
  7. Helmich-Paris, B.; de Souza, B.; Neese, F.; Izsák, R.
     An improved chain of spheres for exchange algorithm
     J. Chem. Phys. 2021 155(10), 104109
     doi.org/10.1063/5.0058766
  8. Neese, F.
     The SHARK Integral Generation and Digestion System
     J. Comp. Chem. 2022 44(3), 381
     doi.org/10.1002/jcc.26942

List of suggested additional citations. These are papers that are important in the 'surrounding' of 
of this run, or papers that preceded the highly important papers. If you like your results we are grateful for a citation.

  1. Izsak, R.; Neese, F.
     An overlap fitted chain of spheres exchange method
     J. Chem. Phys. 2011 135 , 144105
     doi.org/10.1063/1.3646921
  2. Izsak, R.; Hansen, A.; Neese, F.
     The resolution of identity and chain of spheres approximations for the LPNO-CCSD singles Fock term
     Molec. Phys. 2012 110 , 2413-2417
     doi.org/10.1080/00268976.2012.687466
  3. Neese, F.
     The ORCA program system
     WIRES Comput. Molec. Sci. 2012 2(1), 73-78
     doi.org/10.1002/wcms.81
  4. Izsak, R.; Neese, F.; Klopper, W.
     Robust fitting techniques in the chain of spheres approximation to the Fock exchange: The role of the complementary space
     J. Chem. Phys. 2013 139 , 
     doi.org/10.1063/1.4819264
  5. Neese, F.
     Software update: the ORCA program system, version 4.0
     WIRES Comput. Molec. Sci. 2018 8(1), 1-6
     doi.org/10.1002/wcms.1327
  6. Neese, F.; Wennmohs, F.; Becker, U.; Riplinger, C.
     The ORCA quantum chemistry program package
     J. Chem. Phys. 2020 152(22), 224108
     doi.org/10.1063/5.0004608
  7. Neese, F.
     Software update: The ORCA program system—Version 5.0
     WIRES Comput. Molec. Sci. 2022 12(1), e1606
     doi.org/10.1002/wcms.1606

List of optional additional citations

  1. Neese, F.
     Approximate second-order SCF convergence for spin unrestricted wavefunctions
     Chem. Phys. Lett. 2000 325(1-3), 93-98
     doi.org/10.1016/s0009-2614(00)00662-x

Timings for individual modules:

Sum of individual times          ...      106.178 sec (=   1.770 min)
Startup calculation              ...       14.709 sec (=   0.245 min)  13.9 %
SCF iterations                   ...       29.318 sec (=   0.489 min)  27.6 %
Property calculations            ...        3.355 sec (=   0.056 min)   3.2 %
MP2 module                       ...       19.300 sec (=   0.322 min)  18.2 %
Geometry relaxation              ...        0.008 sec (=   0.000 min)   0.0 %
Numerical frequency calculation  ...       39.489 sec (=   0.658 min)  37.2 %
                             ****ORCA TERMINATED NORMALLY****
TOTAL RUN TIME: 0 days 0 hours 1 minutes 44 seconds 742 msec
