
                                 *****************
                                 * O   R   C   A *
                                 *****************

                                            #,                                       
                                            ###                                      
                                            ####                                     
                                            #####                                    
                                            ######                                   
                                           ########,                                 
                                     ,,################,,,,,                         
                               ,,#################################,,                 
                          ,,##########################################,,             
                       ,#########################################, ''#####,          
                    ,#############################################,,   '####,        
                  ,##################################################,,,,####,       
                ,###########''''           ''''###############################       
              ,#####''   ,,,,##########,,,,          '''####'''          '####       
            ,##' ,,,,###########################,,,                        '##       
           ' ,,###''''                  '''############,,,                           
         ,,##''                                '''############,,,,        ,,,,,,###''
      ,#''                                            '''#######################'''  
     '                                                          ''''####''''         
             ,#######,   #######,   ,#######,      ##                                
            ,#'     '#,  ##    ##  ,#'     '#,    #''#        ,####,    ,#,          
            ##       ##  ##   ,#'  ##            #'  '#       #'       ,# #          
            ##       ##  #######   ##           ,######,      #####,      #          
            '#,     ,#'  ##    ##  '#,     ,#' ,#      #,     #,   #      #          
             '#######'   ##     ##  '#######'  #'      '#     '####' #    #          



                #########################################################
                #                        -***-                          #
                #          Department of theory and spectroscopy        #
                #                                                       #
                #                      Frank Neese                      #
                #                                                       #
                #     Directorship, Architecture, Infrastructure        #
                #                    SHARK, DRIVERS                     #
                #        Core code/Algorithms in most modules           #
                #                                                       #
                #        Max Planck Institute fuer Kohlenforschung      #
                #                Kaiser Wilhelm Platz 1                 #
                #                 D-45470 Muelheim/Ruhr                 #
                #                      Germany                          #
                #                                                       #
                #                  All rights reserved                  #
                #                        -***-                          #
                #########################################################


                         Program Version 6.1.1  -  RELEASE   -
                                (GIT: $487d211c$)
                          ($2025-11-21 10:33:24 +0100$)


 With contributions from (in alphabetic order):
[Max-Planck-Institut fuer Kohlenforschung]                               
  Daniel Aravena         : Magnetic Suceptibility                        
  Michael Atanasov       : Ab Initio Ligand Field Theory (pilot matlab implementation)
  Alexander A. Auer      : GIAO ZORA, VPT2 properties, NMR spectrum      
  Ute Becker             : All parallelization in ORCA, NUMFREQ, NUMCALC 
  Giovanni Bistoni       : ED, misc. LED, open-shell LED, HFLD           
  Dmytro Bykov           : pre 5.0 version of the SCF Hessian            
  Marcos Casanova-Páez   : Triplet and SCS-CIS(D). UHF-(DLPNO)-IP/EA/STEOM-CCSD. UHF-CVS-IP/STEOM-CCSD   
  Vijay G. Chilkuri      : MRCI spin determinant printing, contributions to CSF-ICE 
  Pauline Colinet        : FMM embedding                                 
  Dipayan Datta          : RHF DLPNO-CCSD density                        
  Achintya Kumar Dutta   : EOM-CC, STEOM-CC                              
  Nicolas Foglia         : Exact transition moments, OPA infrastructure, MCD improvements    
  Dmitry Ganyushin       : Spin-Orbit,Spin-Spin,Magnetic field MRCI      
  Miquel Garcia-Rates    : C-PCM and meta-GGA Hessian, CCSD/C-PCM, Gaussian charge scheme 
  Tiago L. C. Gouveia    : GS-ROHF, GS-ROCIS                             
  Yang Guo               : DLPNO-NEVPT2, F12-NEVPT2, CIM, IAO-localization        
  Andreas Hansen         : Spin unrestricted coupled pair/coupled cluster methods 
  Ingolf Harden          : AUTO-CI MPn and infrastructure                
  Benjamin Helmich-Paris : MC-RPA, TRAH-(SCF,CASSCF), AVAS, COSX integrals, SCF dyn. polar., MC-PDFT, srDFT 
  Lee Huntington         : MR-EOM, pCC                                   
  Robert Izsak           : Overlap fitted RIJCOSX, COSX-SCS-MP3, EOM     
  Riya Kayal             : Wick's Theorem for AUTO-CI, AUTO-CI UHF-CCSDT 
  Emily Kempfer          : AUTO-CI RHF CISDT and CCSDT, approximate NEVPT4
  Christian Kollmar      : KDIIS, OOCD, Brueckner-CCSD(T), CCSD density, CASPT2, CASPT2-K, improved NEVPT2 
  Axel Koslowski         : Symmetry handling                             
  Simone Kossmann        : meta-GGA functionals, TD-DFT gradient, OOMP2, (MP2 Hessian; deprecated post 5.0) 
  Lucas Lang             : DCDCAS, Hyperfine gauge corrections, ICE-SOC+SSC
  Marvin Lechner         : AUTO-CI (C++ implementation), FIC-MRCC        
  Spencer Leger          : CASSCF response                               
  Dagmar Lenk            : GEPOL surface, SMD, ORCA-2-JSON               
  Dimitrios Liakos       : Extrapolation schemes; Compound Job, Property file
  Dimitrios Manganas     : Further ROCIS development; embedding schemes. LFT, Crystal Embedding 
  Dimitrios Pantazis     : SARC Basis sets                               
  Anastasios Papadopoulos: AUTO-CI, single reference methods and gradients 
  Taras Petrenko         : pre 6.0 DFT Hessian and TD-DFT gradient,  ECA, NRVS 
  Petra Pikulova         : Analytic Raman intensities                    
  Peter Pinski           : DLPNO-MP2, DLPNO-MP2 Gradient                 
  Shashank Vittal Rao    : ES-AILFT, MagRelax                            
  Christoph Reimann      : Effective Core Potentials                     
  Marius Retegan         : Local ZFS, SOC                                
  Christoph Riplinger    : Optimizer, TS searches, QM/MM, DLPNO-CCSD(T), (RO)-DLPNO pert. Triples 
  Michael Roemelt        : Original ROCIS implementation, recursive CI coupling coefficients
  Masaaki Saitow         : Open-shell DLPNO-CCSD energy and density      
  Barbara Sandhoefer     : DKH picture change effects                    
  Yorick L. A. Schmerwitz: GMF and freeze-and-release deltaSCF, NEB S-IDPP initial path                    
  Kantharuban Sivalingam : CASSCF convergence/infrastructure, NEVPT2, NEVPT3, NEVPT4(SD), FIC-MRCI and CEPA variants
  Bernardo de Souza      : ESD, SOC TD-DFT                               
  Georgi L. Stoychev     : AutoAux, RI-MP2 NMR, DLPNO-MP2 response, X2C  
  Van Anh Tran           : RI-MP2 g-tensors                              
  Willem Van den Heuvel  : Paramagnetic NMR                              
  Zikuan Wang            : NOTCH, Electric field optimization            
  Frank Wennmohs         : Technical directorship and infrastructure     
  Hang Xu                : AUTO-CI-Response properties                   
                                                                         
[FACCTs GmbH]                                                            
  Markus Bursch, Nicolas Foglia, Miquel Garcia-Rates, Ingolf Harden, Hagen Neugebauer, Anastasios Papadopoulos, 
  Christoph Riplinger, Bernardo de Souza, Georgi L. Stoychev                                                    
                                                                 
  APM, various basis sets, CI-OPT, improved COSX, DLPNO-Multilevel,           
  DOCKER, DRACO, updates on ESD, Fragmentator, GOAT, IRC, LR-CPCM, L-BFGS, MBIS, meta-GGA TD-DFT gradient, ML-optimized integration grids, 
  MM, NACMEs, nearIR, NEB, NEB-TS, NL-DFT gradient (VV10), 2- and 3-layer-ONIOM, interface openCOSMO-RS, QMMM,   
  Crystal-QMMM, RESP, rigid body optimization, SF, symmetry and pop. for TD-DFT, various functionals, SOLVATOR                                   
                                                                         
[Other institutions]                                                     
  V. Asgeirsson          : NEB                                           
  Christoph Bannwarth    : sTDA-DFT, sTD-DFT, PBEh-3c, B97-3c, D3        
  Giovanni Bistoni       : ETS/NOCV, ADLD/ADEX, COVALED                  
  Martin Brehm           : Molecular dynamics                            
  Ronald Cardenas        : ETS/NOCV                                      
  Martina Colucci        : COVALED                                       
  Sebastian Ehlert       : rSCAN, r2SCAN, r2SCAN-3c, D4, dhf basis sets  
  Marvin Friede          : D4 for Fr, Ra, Ac-Lr                          
  Lars Goerigk           : TD-DFT with DH, B97 family of functionals     
  Stefan Grimme          : VdW corrections, initial TS optimization, DFT functionals, gCP, sTDA/sTD-DF 
  Waldemar Hujo          : DFT-NL                                        
  H. Jonsson             : NEB                                           
  Holger Kruse           : gCP                                           
  Marcel Mueller         : wB97X-3c, vDZP basis set                      
  Hagen Neugebauer       : wr2SCAN, Native XTB                           
  Gianluca Regni         : ADLD/ADEX                                     
  Tobias Risthaus        : pre 6.0 range-separated hybrid DFT and stability analysis
  Lukas Wittmann         : regularized MP2, r2SCAN double-hybrids, wr2SCAN        
                                                                         
We gratefully acknowledge several colleagues who have allowed us to      
interface, adapt or use parts of their codes:                            
  Ed Valeev, F. Pavosevic, A. Kumar             : LibInt (2-el integral package), F12 methods 
  Garnet Chan, S. Sharma, J. Yang, R. Olivares  : DMRG                   
  Ulf Ekstrom                                   : XCFun DFT Library      
  Mihaly Kallay                                 : mrcc  (arbitrary order and MRCC methods)
  Frank Weinhold                                : gennbo (NPA and NBO analysis)           
  Simon Mueller                                 : openCOSMO-RS                            
  Christopher J. Cramer and Donald G. Truhlar   : smd solvation model                     
  S Lehtola, MJT Oliveira, MAL Marques          : LibXC Library                           
  Liviu Ungur et al                             : ANISO software                          


 Your calculation uses the libint2 library for the computation of 2-el integrals
 For citations please refer to: http://libint.valeyev.net

 Your ORCA version has been built with support for libXC version: 7.0.0
 For citations please refer to: https://libxc.gitlab.io

 This ORCA versions uses:
   CBLAS   interface :  Fast vector & matrix operations
   LAPACKE interface :  Fast linear algebra routines
   SCALAPACK package :  Parallel linear algebra routines
   Shared memory     :  Shared parallel matrices
   BLAS/LAPACK       :  OpenBLAS 0.3.29  USE64BITINT DYNAMIC_ARCH NO_AFFINITY SkylakeX SINGLE_THREADED
        Core in use  :  SkylakeX
   Copyright (c) 2011-2014, The OpenBLAS Project


  ***********************************
  * Starting time: Thu Mar 12 16:10:45 2026
  * Host name:     c4-21
  * Process ID:    2051997
  * Working dir.:  /tmp/lscratch/avcopan/43559378
  ***********************************

NOTE: MaxCore=9000 MB was set to SCF,MP2,MDCI,CIPSI,MRCI,RASCI and CIS
      => If you want to overwrite this, your respective input block should be placed after the MaxCore statement


***************************************
The coordinates will be read from file: opt.xyz
***************************************


================================================================================

----- Orbital basis set information -----
Your calculation utilizes the basis: cc-pVDZ-F12 

----- AuxC basis set information -----
Your calculation utilizes the auxiliary basis: cc-pVTZ/C 
  Obtained from the EMSL Basis Set Exchange (bse.pnl.gov) Feb. 2017
  H-He, B-F, Al-Ar, Ga-Kr : F. Weigend, A. Kohn, C. Hattig, J. Chem. Phys. 116, 3175 (2002)
             Li-Be, Na-Mg : C. Haettig, Phys. Chem. Chem. Phys. 7, 59 (2005)
                       Ne : C. Haettig, Phys. Chem. Chem. Phys. 7, 59 (2005)
                            F. Weigend, A. Kohn, C. Hattig, J. Chem. Phys. 116, 3175 (2002)
                    Sc-Zn : J. G. Hill, J. A. Platts, J. Chem. Phys. 128, 044104 (2008)

----- CABS information -----
Your calculation utilizes the basis: cc-pVDZ-F12 


                    <<< The CABS basis set will be decontracted >>>

================================================================================
                                        WARNINGS
                       Please study these warnings very carefully!
================================================================================


WARNING: Post HF methods need fully converged wavefunctions
  ===> : Setting SCFConvForced true
         You can overwrite this default with %scf ConvForced false 


WARNING: MDCI localization with Augmented Hessian Foster-Boys
  ===> : Switching off randomization!

WARNING: UseCISUpdate is  only available for RHF calculations...
  ===> : Setting UseCISUpdate = false 

================================================================================
                                       INPUT FILE
================================================================================
NAME = sp.inp
|  1> # 
|  2> % MaxCore 9000
|  3> ! PAL8
|  4> ! uhf ccsd(t)-f12/ri cc-pvdz-f12 cc-pvdz-f12-cabs cc-pvtz/c
|  5> * xyzfile 0 1 opt.xyz
|  6> 
|  7> 
|  8>                          ****END OF INPUT****
================================================================================

                       ****************************
                       * Single Point Calculation *
                       ****************************

---------------------------------
CARTESIAN COORDINATES (ANGSTROEM)
---------------------------------
  C     -1.720869    2.845717   -1.632414
  H     -0.673091    3.134213   -1.700725
  H     -2.249735    3.548464   -0.990398
  H     -2.165807    2.856361   -2.626223
  H     -1.794844    1.843825   -1.212325

----------------------------
CARTESIAN COORDINATES (A.U.)
----------------------------
  NO LB      ZA    FRAG     MASS         X           Y           Z
   0 C     6.0000    0    12.011   -3.251970    5.377626   -3.084815
   1 H     1.0000    0     1.008   -1.271959    5.922804   -3.213904
   2 H     1.0000    0     1.008   -4.251384    6.705624   -1.871580
   3 H     1.0000    0     1.008   -4.092782    5.397740   -4.962842
   4 H     1.0000    0     1.008   -3.391763    3.484325   -2.290962

--------------------------------
INTERNAL COORDINATES (ANGSTROEM)
--------------------------------
 C      0   0   0     0.000000000000     0.00000000     0.00000000
 H      1   0   0     1.088913659069     0.00000000     0.00000000
 H      1   2   0     1.088915690272   109.47158465     0.00000000
 H      1   2   3     1.088916698776   109.47080103   120.00012697
 H      1   2   3     1.088914658338   109.47136828   239.99948858

---------------------------
INTERNAL COORDINATES (A.U.)
---------------------------
 C      0   0   0     0.000000000000     0.00000000     0.00000000
 H      1   0   0     2.057748599127     0.00000000     0.00000000
 H      1   2   0     2.057752437544   109.47158465     0.00000000
 H      1   2   3     2.057754343340   109.47080103   120.00012697
 H      1   2   3     2.057750487472   109.47136828   239.99948858

---------------------
BASIS SET INFORMATION
---------------------
There are 2 groups of distinct atoms

 Group   1 Type C   : 19s6p2d contracted to 5s5p2d pattern {88111/21111/11}
 Group   2 Type H   : 5s2p contracted to 3s2p pattern {311/11}

Atom   0C    basis set group =>   1
Atom   1H    basis set group =>   2
Atom   2H    basis set group =>   2
Atom   3H    basis set group =>   2
Atom   4H    basis set group =>   2
---------------------------------
AUXILIARY/C BASIS SET INFORMATION
---------------------------------
There are 2 groups of distinct atoms

 Group   1 Type C   : 8s6p5d3f1g contracted to 8s6p5d3f1g pattern {11111111/111111/11111/111/1}
 Group   2 Type H   : 4s3p2d1f contracted to 4s3p2d1f pattern {1111/111/11/1}

Atom   0C    basis set group =>   1
Atom   1H    basis set group =>   2
Atom   2H    basis set group =>   2
Atom   3H    basis set group =>   2
Atom   4H    basis set group =>   2
--------------
CABS BASIS SET
--------------
There are 2 groups of distinct atoms

 Group   1 Type C   : 15s10p6d3f1g contracted to 15s10p6d3f1g pattern {111111111111111/1111111111/111111/111/1}
 Group   2 Type H   : 8s5p2d contracted to 8s5p2d pattern {11111111/11111/11}

Atom   0C    basis set group =>   1
Atom   1H    basis set group =>   2
Atom   2H    basis set group =>   2
Atom   3H    basis set group =>   2
Atom   4H    basis set group =>   2


           ************************************************************
           *        Program running with 8 parallel MPI-processes     *
           *              working on a common directory               *
           ************************************************************
------------------------------------------------------------------------------
                             ORCA STARTUP CALCULATIONS
------------------------------------------------------------------------------
------------------------------------------------------------------------------
                   ___                                                        
                  /   \      - P O W E R E D   B Y -                         
                 /     \                                                     
                 |  |  |   _    _      __       _____    __    __             
                 |  |  |  | |  | |    /  \     |  _  \  |  |  /  |          
                  \  \/   | |  | |   /    \    | | | |  |  | /  /          
                 / \  \   | |__| |  /  /\  \   | |_| |  |  |/  /          
                |  |  |   |  __  | /  /__\  \  |    /   |      \           
                |  |  |   | |  | | |   __   |  |    \   |  |\   \          
                \     /   | |  | | |  |  |  |  | |\  \  |  | \   \       
                 \___/    |_|  |_| |__|  |__|  |_| \__\ |__|  \__/        
                                                                              
                      - O R C A' S   B I G   F R I E N D -                    
                                      &                                       
                       - I N T E G R A L  F E E D E R -                       
                                                                              
 v1 FN, 2020, v2 2021, v3 2022-2024                                           
------------------------------------------------------------------------------


----------------------
SHARK INTEGRAL PACKAGE
----------------------

Number of atoms                             ...      5
Number of basis functions                   ...     72
Number of shells                            ...     38
Maximum angular momentum                    ...      2
Integral batch strategy                     ... SHARK/LIBINT Hybrid
RI-J (if used) integral strategy            ... SPLIT-RIJ (Revised 2003 algorithm where possible)
Printlevel                                  ...      1
Contraction scheme used                     ... PARTIAL GENERAL contraction
Prescreening option                         ... SCHWARTZ
   Thresh                                   ... 1.000e-10
   Tcut                                     ... 1.000e-11
   Tpresel                                  ... 1.000e-11 
Coulomb Range Separation                    ... NOT USED
Exchange Range Separation                   ... NOT USED
Multipole approximations                    ... NOT USED
Finite Nucleus Model                        ... NOT USED
CABS basis                                  ... AVAILABLE
   # of basis functions in CABS             ...    237
   # of shells in CABS                      ...     95
   Maximum angular momentum in CABS         ...      4
F12 Gamma exponent                          ...  0.900000
F12-Geminal                                 ...  6 primitives
l =0 ng=6 ofs=0
   a( 0) =     0.220850853  d( 0)=    -0.314424804 
   a( 1) =     1.004019154  d( 1)=    -0.303695753 
   a( 2) =     3.621217265  d( 2)=    -0.168069685 
   a( 3) =    12.162483048  d( 3)=    -0.098115813 
   a( 4) =    45.855331575  d( 4)=    -0.060246641 
   a( 5) =   254.234600970  d( 5)=    -0.037263542 
Auxiliary Coulomb fitting basis             ... NOT available
Auxiliary J/K fitting basis                 ... NOT available
Auxiliary Correlation fitting basis         ... AVAILABLE
   # of basis functions in Aux-C            ...    201
   # of shells in Aux-C                     ...     63
   Maximum angular momentum in Aux-C        ...      4
Auxiliary 'external' fitting basis          ... NOT available

Checking pre-screening integrals            ... done (  0.0 sec) Dimension = 38
Save PGC pre-screening integrals            ... done (  0.0 sec) Dimension = 38
Calculate PGC overlap integrals             ... done (  0.0 sec) Dimension = 32
Calculating pre-screening integrals (ORCA)  ... done (  0.0 sec) Dimension = 32
Shell pair information
Shell pair cut-off parameter TPreSel        ...   1.0e-11
Total number of shell pairs                 ...       741
Shell pairs after pre-screening             ...       741
Total number of primitive shell pairs       ...      1141
Primitive shell pairs kept                  ...      1089
          la=0 lb=0:    276 shell pairs
          la=1 lb=0:    299 shell pairs
          la=1 lb=1:     91 shell pairs
          la=2 lb=0:     46 shell pairs
          la=2 lb=1:     26 shell pairs
          la=2 lb=2:      3 shell pairs

Checking whether 4 symmetric matrices of dimension 72 fit in memory
:Max Core in MB      =   9000.00
 MB in use           =      8.65
 MB left             =   8991.35
 MB needed           =      0.08
 Data fit in memory  = YES
Calculating RI/C V-Matrix + Cholesky decomp.... done (  0.0 sec)
Calculating Nuclear repulsion               ... done (  0.0 sec) ENN=     13.448774091423 Eh

Diagonalization of the overlap matrix:
Smallest eigenvalue                        ... 1.262e-03
Time for diagonalization                   ...    0.002 sec
Threshold for overlap eigenvalues          ... 1.000e-07
Number of eigenvalues below threshold      ... 0
Time for construction of square roots      ...    0.000 sec
Total time needed                          ...    0.003 sec

-------------------
DFT GRID GENERATION
-------------------

General Integration Accuracy     IntAcc      ... 4.388
Radial Grid Type                 RadialGrid  ... OptM3 with GC (2021)
Angular Grid (max. ang.)         AngularGrid ... 4 (Lebedev-302)
Angular grid pruning method      GridPruning ... 4 (adaptive)
Weight generation scheme         WeightScheme... mBecke (2022)
Basis function cutoff            BFCut       ... 1.0000e-10
Integration weight cutoff        WCut        ... 1.0000e-14
Partially contracted basis set               ... off
Rotationally invariant grid construction     ... off
Angular grids for H and He will be reduced by one unit
Diffuse basis detected: some atoms will have their outermost
                        angular grid increased by 1.

Total number of grid points                  ...    19569
Total number of batches                      ...      307
Average number of points per batch           ...       63
Average number of grid points per atom       ...     3914

---------------------
SHARK GRID GENERATION
---------------------

General Integration Accuracy     IntAcc      ... 4.388
Radial Grid Type                 RadialGrid  ... OptM3 with GC (2021)
Angular Grid (max. ang.)         AngularGrid ... 4 (Lebedev-302)
Angular grid pruning method      GridPruning ... 4 (adaptive)
Weight generation scheme         WeightScheme... mBecke (2022)
Basis function cutoff            BFCut       ... 1.0000e-10
Integration weight cutoff        WCut        ... 1.0000e-14
Partially contracted basis set               ... off
Rotationally invariant grid construction     ... off
Angular grids for H and He will be reduced by one unit
Diffuse basis detected: some atoms will have their outermost
                        angular grid increased by 1.
Steep s-basis detected: some atoms will have their radial
                        grid points doubled.

Total number of grid points                  ...    26115
Total number of batches                      ...      411
Average number of points per batch           ...       63
Average number of grid points per atom       ...     5223
Grids setup in   0.1 sec
Initializing property integral containers    ... done (  0.0 sec)

SHARK setup successfully completed in   0.4 seconds

Maximum memory used throughout the entire STARTUP-calculation: 21.0 MB


           ************************************************************
           *        Program running with 8 parallel MPI-processes     *
           *              working on a common directory               *
           ************************************************************
-------------------------------------------------------------------------------
                                 ORCA GUESS
                   Start orbitals & Density for SCF / CASSCF
-------------------------------------------------------------------------------

------------
SCF SETTINGS
------------
Hamiltonian:
 Ab initio Hamiltonian  Method          .... Hartree-Fock(GTOs)


General Settings:
 Integral files         IntName         .... sp
 Hartree-Fock type      HFTyp           .... UHF
 Total Charge           Charge          ....    0
 Multiplicity           Mult            ....    1
 Number of Electrons    NEL             ....   10
 Basis Dimension        Dim             ....   66
 Nuclear Repulsion      ENuc            ....     13.4487740914 Eh

Convergence Acceleration:
 AO-DIIS                CNVDIIS         .... on
   Start iteration      DIISMaxIt       ....    12
   Startup error        DIISStart       ....  0.200000
   # of expansion vecs  DIISMaxEq       ....     5
   Bias factor          DIISBfac        ....   1.050
   Max. coefficient     DIISMaxC        ....  10.000
 MO-DIIS                CNVKDIIS        .... off
 Trust-Rad. Augm. Hess. CNVTRAH         .... auto
   Auto Start mean grad. ratio tolernc. ....  1.125000
   Auto Start start iteration           ....    50
   Auto Start num. interpolation iter.  ....    10
   Max. Number of Micro iterations      ....    24
   Max. Number of Macro iterations      .... Maxiter - #DIIS iter
   Number of Davidson start vectors     ....     2
   Converg. threshold    (grad. norm)   ....   5.000e-05
   Grad. Scal. Fac. for Micro threshold ....   0.100
   Minimum threshold for Micro iter.    ....   1.000e-02
   NR start threshold (gradient norm)   ....   1.000e-04
   Initial trust radius                 ....   0.400
   Minimum AH scaling param. (alpha)    ....   1.000
   Maximum AH scaling param. (alpha)    .... 1000.000
   Quad. conv. algorithm                .... NR
   White noise on init. David. guess    .... on
   Maximum white noise                  ....   0.010
   Pseudo random numbers                .... off
   Inactive MOs                         .... canonical
   Orbital update algorithm             .... Taylor
   Preconditioner                       .... Diag
   Full preconditioner red. dimension   ....   250
 SOSCF                 CNVSOSCF           .... on
   Start iteration     SOSCFMaxIt         ....   150
   Startup grad/error  SOSCFStart         ....  0.003300
   Hessian update      SOSCFHessUp        .... L-BFGS
   Autom. constraints  SOSCFAutoConstrain .... off
 Level Shifting         CNVShift        .... on
   Level shift para.    LevelShift      ....    0.2500
   Turn off err/grad.   ShiftErr        ....    0.0010
 Zerner damping         CNVZerner       .... off
 Static damping         CNVDamp         .... on
   Fraction old density DampFac         ....    0.7000
   Max. Damping (<1)    DampMax         ....    0.9800
   Min. Damping (>=0)   DampMin         ....    0.0000
   Turn off err/grad.   DampErr         ....    0.1000

SCF Procedure:
 Maximum # iterations   MaxIter         ....   125
 SCF integral mode      SCFMode         .... Direct
   Integral package                     .... SHARK and LIBINT hybrid scheme
 Reset frequency        DirectResetFreq ....    20
 Integral Threshold     Thresh          ....  1.000e-10 Eh
 Primitive CutOff       TCut            ....  1.000e-11 Eh

Convergence Tolerance:
 Convergence Check Mode ConvCheckMode   .... Total+1el-Energy
 Convergence forced     ConvForced      .... 1
 Energy Change          TolE            ....  1.000e-06 Eh
 1-El. energy change                    ....  1.000e-03 Eh
 Orbital Gradient       TolG            ....  5.000e-05
 Orbital Rotation angle TolX            ....  5.000e-05
 DIIS Error             TolErr          ....  1.000e-06

------------------------------
INITIAL GUESS: MODEL POTENTIAL
------------------------------
Loading Hartree-Fock densities                     ... done
Calculating cut-offs                               ... done
Initializing the effective Hamiltonian             ... done
Setting up the integral package (SHARK)            ... done
Starting the Coulomb interaction                   ... done (   0.0 sec)
Making the grid                                    ... done (   0.0 sec)
Mapping shells                                     ... done
Starting the XC term evaluation                    ... done (   0.0 sec)
Transforming the Hamiltonian                       ... done (   0.0 sec)
Diagonalizing the Hamiltonian                      ... done (   0.0 sec)
Back transforming the eigenvectors                 ... done (   0.0 sec)
Now organizing SCF variables                       ... done
                      ------------------
                      INITIAL GUESS DONE (   0.0 sec)
                      ------------------
             **** ENERGY FILE WAS UPDATED (sp.en.tmp) ****
Finished Guess after   1.6 sec
Maximum memory used throughout the entire GUESS-calculation: 6.3 MB


           ************************************************************
           *        Program running with 8 parallel MPI-processes     *
           *              working on a common directory               *
           ************************************************************

-------------------------------------------------------------------------------------------
                                      ORCA LEAN-SCF
                              memory conserving SCF solver
-------------------------------------------------------------------------------------------

----------------------------------------D-I-I-S--------------------------------------------
Iteration    Energy (Eh)           Delta-E    RMSDP     MaxDP     DIISErr   Damp  Time(sec)
-------------------------------------------------------------------------------------------
               ***  Starting incremental Fock matrix formation  ***
    1    -40.0977292358522774     0.00e+00  2.72e-03  1.61e-02  1.35e-01  0.700   0.0
    2    -40.1392945603252613    -4.16e-02  2.13e-03  1.17e-02  8.69e-02  0.700   0.0
                               ***Turning on AO-DIIS***
    3    -40.1640622618692049    -2.48e-02  1.24e-03  7.91e-03  5.17e-02  0.700   0.0
    4    -40.1794061392731052    -1.53e-02  2.81e-03  1.88e-02  3.48e-02  0.000   0.0
                              *** Initializing SOSCF ***
---------------------------------------S-O-S-C-F--------------------------------------
Iteration    Energy (Eh)           Delta-E    RMSDP     MaxDP     MaxGrad    Time(sec)
--------------------------------------------------------------------------------------
    5    -40.2121644995529977    -3.28e-02  2.82e-04  1.44e-03  1.80e-03     0.0
               *** Restarting incremental Fock matrix formation ***
    6    -40.2122383096296687    -7.38e-05  2.03e-04  6.94e-04  6.78e-04     0.0
    7    -40.2122538618757090    -1.56e-05  1.17e-04  4.22e-04  2.51e-04     0.0
    8    -40.2122562526868066    -2.39e-06  1.01e-06  3.79e-06  8.31e-06     0.0
                  *** Gradient check signals convergence ***

               *****************************************************
               *                     SUCCESS                       *
               *           SCF CONVERGED AFTER   8 CYCLES          *
               *****************************************************

             **** ENERGY FILE WAS UPDATED (sp.en.tmp) ****

----------------
TOTAL SCF ENERGY
----------------

Total Energy       :        -40.21225625335542 Eh           -1094.23112 eV

Components:
Nuclear Repulsion  :         13.44877409142261 Eh             365.95975 eV
Electronic Energy  :        -53.66103034477803 Eh           -1460.19087 eV
One Electron Energy:        -79.75328161546170 Eh           -2170.19712 eV
Two Electron Energy:         26.09225127068367 Eh             710.00625 eV

Virial components:
Potential Energy   :        -80.36404940820012 Eh           -2186.81696 eV
Kinetic Energy     :         40.15179315484470 Eh            1092.58584 eV
Virial Ratio       :          2.00150586297049

---------------
SCF CONVERGENCE
---------------

  Last Energy change         ...    2.3908e-06  Tolerance :   1.0000e-06
  Last MAX-Density change    ...    3.7892e-06  Tolerance :   1.0000e-05
  Last RMS-Density change    ...    1.0085e-06  Tolerance :   1.0000e-06
  Last DIIS Error            ...    1.7992e-03  Tolerance :   1.0000e-06
  Last Orbital Gradient      ...    8.3087e-06  Tolerance :   5.0000e-05
  Last Orbital Rotation      ...    4.8684e-06  Tolerance :   5.0000e-05


----------------------
UHF SPIN CONTAMINATION
----------------------

Expectation value of <S**2>     :    -0.000000
Ideal value S*(S+1) for S=0.0   :     0.000000
Deviation                       :    -0.000000

----------------
ORBITAL ENERGIES
----------------
                 SPIN UP ORBITALS
  NO   OCC          E(Eh)            E(eV) 
   0   1.0000     -11.206987      -304.9576 
   1   1.0000      -0.942806       -25.6551 
   2   1.0000      -0.544866       -14.8266 
   3   1.0000      -0.544866       -14.8265 
   4   1.0000      -0.544864       -14.8265 
   5   0.0000       0.072091         1.9617 
   6   0.0000       0.090342         2.4583 
   7   0.0000       0.090342         2.4583 
   8   0.0000       0.090342         2.4583 
   9   0.0000       0.243660         6.6303 
  10   0.0000       0.243660         6.6303 
  11   0.0000       0.243661         6.6303 
  12   0.0000       0.286168         7.7870 
  13   0.0000       0.466422        12.6920 
  14   0.0000       0.466422        12.6920 
  15   0.0000       0.466422        12.6920 

                 SPIN DOWN ORBITALS
  NO   OCC          E(Eh)            E(eV) 
   0   1.0000     -11.206987      -304.9576 
   1   1.0000      -0.942806       -25.6551 
   2   1.0000      -0.544866       -14.8266 
   3   1.0000      -0.544866       -14.8265 
   4   1.0000      -0.544864       -14.8265 
   5   0.0000       0.072091         1.9617 
   6   0.0000       0.090342         2.4583 
   7   0.0000       0.090342         2.4583 
   8   0.0000       0.090342         2.4583 
   9   0.0000       0.243660         6.6303 
  10   0.0000       0.243660         6.6303 
  11   0.0000       0.243661         6.6303 
  12   0.0000       0.286168         7.7870 
  13   0.0000       0.466422        12.6920 
  14   0.0000       0.466422        12.6920 
  15   0.0000       0.466422        12.6920 
*Only the first 10 virtual orbitals were printed.

                    ********************************
                    * MULLIKEN POPULATION ANALYSIS *
                    ********************************

--------------------------------------------
MULLIKEN ATOMIC CHARGES AND SPIN POPULATIONS
--------------------------------------------
   0 C :   -0.469048    0.000000
   1 H :    0.117263    0.000000
   2 H :    0.117262    0.000000
   3 H :    0.117262    0.000000
   4 H :    0.117262    0.000000
Sum of atomic charges         :   -0.0000000
Sum of atomic spin populations:    0.0000000

-----------------------------------------------------
MULLIKEN REDUCED ORBITAL CHARGES AND SPIN POPULATIONS
-----------------------------------------------------
CHARGE
  0 C s       :     3.262432  s :     3.262432
      pz      :     1.049035  p :     3.147104
      px      :     1.049035
      py      :     1.049035
      dz2     :     0.013135  d :     0.059512
      dxz     :     0.010060
      dyz     :     0.012102
      dx2y2   :     0.016755
      dxy     :     0.007461

  1 H s       :     0.856303  s :     0.856303
      pz      :     0.008202  p :     0.026435
      px      :     0.009908
      py      :     0.008325

  2 H s       :     0.856304  s :     0.856304
      pz      :     0.008838  p :     0.026435
      px      :     0.008631
      py      :     0.008965

  3 H s       :     0.856304  s :     0.856304
      pz      :     0.009736  p :     0.026435
      px      :     0.008504
      py      :     0.008195

  4 H s       :     0.856303  s :     0.856303
      pz      :     0.008470  p :     0.026435
      px      :     0.008203
      py      :     0.009761


SPIN
  0 C s       :     0.000000  s :     0.000000
      pz      :     0.000000  p :     0.000000
      px      :     0.000000
      py      :     0.000000
      dz2     :     0.000000  d :     0.000000
      dxz     :     0.000000
      dyz     :     0.000000
      dx2y2   :     0.000000
      dxy     :     0.000000

  1 H s       :     0.000000  s :     0.000000
      pz      :     0.000000  p :     0.000000
      px      :     0.000000
      py      :     0.000000

  2 H s       :     0.000000  s :     0.000000
      pz      :     0.000000  p :     0.000000
      px      :     0.000000
      py      :     0.000000

  3 H s       :     0.000000  s :     0.000000
      pz      :     0.000000  p :     0.000000
      px      :     0.000000
      py      :     0.000000

  4 H s       :     0.000000  s :     0.000000
      pz      :     0.000000  p :     0.000000
      px      :     0.000000
      py      :     0.000000



                     *******************************
                     * LOEWDIN POPULATION ANALYSIS *
                     *******************************

-------------------------------------------
LOEWDIN ATOMIC CHARGES AND SPIN POPULATIONS
-------------------------------------------
   0 C :    0.028130    0.000000
   1 H :   -0.007033    0.000000
   2 H :   -0.007032    0.000000
   3 H :   -0.007032    0.000000
   4 H :   -0.007033    0.000000

----------------------------------------------------
LOEWDIN REDUCED ORBITAL CHARGES AND SPIN POPULATIONS
----------------------------------------------------
CHARGE
  0 C s       :     2.711779  s :     2.711779
      pz      :     1.027365  p :     3.082096
      px      :     1.027365
      py      :     1.027365
      dz2     :     0.039284  d :     0.177995
      dxz     :     0.030090
      dyz     :     0.036195
      dx2y2   :     0.050111
      dxy     :     0.022315

  1 H s       :     0.819265  s :     0.819265
      pz      :     0.050560  p :     0.187768
      px      :     0.084228
      py      :     0.052979

  2 H s       :     0.819266  s :     0.819266
      pz      :     0.063111  p :     0.187767
      px      :     0.059030
      py      :     0.065626

  3 H s       :     0.819265  s :     0.819265
      pz      :     0.080834  p :     0.187767
      px      :     0.056513
      py      :     0.050419

  4 H s       :     0.819265  s :     0.819265
      pz      :     0.055851  p :     0.187767
      px      :     0.050584
      py      :     0.081332


SPIN
  0 C s       :     0.000000  s :     0.000000
      pz      :     0.000000  p :     0.000000
      px      :     0.000000
      py      :     0.000000
      dz2     :     0.000000  d :     0.000000
      dxz     :     0.000000
      dyz     :     0.000000
      dx2y2   :     0.000000
      dxy     :     0.000000

  1 H s       :     0.000000  s :     0.000000
      pz      :     0.000000  p :     0.000000
      px      :     0.000000
      py      :     0.000000

  2 H s       :     0.000000  s :     0.000000
      pz      :     0.000000  p :     0.000000
      px      :     0.000000
      py      :     0.000000

  3 H s       :     0.000000  s :     0.000000
      pz      :     0.000000  p :     0.000000
      px      :     0.000000
      py      :     0.000000

  4 H s       :     0.000000  s :     0.000000
      pz      :     0.000000  p :     0.000000
      px      :     0.000000
      py      :     0.000000



                      *****************************
                      * MAYER POPULATION ANALYSIS *
                      *****************************

  NA   - Mulliken gross atomic population
  ZA   - Total nuclear charge
  QA   - Mulliken gross atomic charge
  VA   - Mayer's total valence
  BVA  - Mayer's bonded valence
  FA   - Mayer's free valence

  ATOM       NA         ZA         QA         VA         BVA        FA
  0 C      6.4690     6.0000    -0.4690     3.9174     3.9174    -0.0000
  1 H      0.8827     1.0000     0.1173     0.9745     0.9745    -0.0000
  2 H      0.8827     1.0000     0.1173     0.9745     0.9745    -0.0000
  3 H      0.8827     1.0000     0.1173     0.9745     0.9745    -0.0000
  4 H      0.8827     1.0000     0.1173     0.9745     0.9745    -0.0000

  Mayer bond orders larger than 0.100000
B(  0-C ,  1-H ) :   0.9794 B(  0-C ,  2-H ) :   0.9794 B(  0-C ,  3-H ) :   0.9794 
B(  0-C ,  4-H ) :   0.9794 

-------
TIMINGS
-------

Total SCF time: 0 days 0 hours 0 min 1 sec 

Total time                  ....       1.909 sec
Sum of individual times     ....       1.883 sec  ( 98.6%)

SCF preparation             ....       1.593 sec  ( 83.5%)
Fock matrix formation       ....       0.165 sec  (  8.6%)
  Startup                   ....       0.004 sec  (  2.4% of F)
  Coulomb+Exchange Fock     ....       0.167 sec  (101.2% of F)
Diagonalization             ....       0.000 sec  (  0.0%)
Density matrix formation    ....       0.017 sec  (  0.9%)
Total Energy calculation    ....       0.009 sec  (  0.5%)
Population analysis         ....       0.010 sec  (  0.5%)
Orbital Transformation      ....       0.014 sec  (  0.7%)
Orbital Orthonormalization  ....       0.000 sec  (  0.0%)
DIIS solution               ....       0.048 sec  (  2.5%)
SOSCF solution              ....       0.025 sec  (  1.3%)
Finished LeanSCF after   1.9 sec

Maximum memory used throughout the entire LEANSCF-calculation: 8.3 MB


           ************************************************************
           *        Program running with 8 parallel MPI-processes     *
           *              working on a common directory               *
           ************************************************************

------------------------------------------------------------------------------
                         ORCA PROPERTY INTEGRAL CALCULATIONS
------------------------------------------------------------------------------

GBWName                                   ... sp.gbw
Number of atoms                           ...      5
Number of basis functions                 ...     72
Max core memory                           ...   9000 MB

Dipole integrals                          ... YES
Quadrupole integrals                      ...  NO
Linear momentum integrals                 ... YES
Angular momentum integrals                ... YES
Higher moments length integrals           ...  NO
Higher moments velocity integrals         ...  NO
Kinetic energy integrals                  ...  NO
GIAO right hand sides                     ...  NO
GIAO dipole derivative integrals          ...  NO
SOC integrals                             ...  NO
EPR diamagnetic integrals (GIAO)          ...  NO
EPR gauge integrals                       ...  NO
Field gradient integrals                  ...  NO (   0 nuclei)
Spin-dipole/Fermi contact integrals       ...  NO (   0 nuclei)
Contact density integrals                 ...  NO (   0 nuclei)
Nucleus-orbit integrals                   ...  NO (   0 nuclei)
Geometric perturbations                   ...  NO (   5 nuclei)

Choice of electric origin   ... Center of mass
Position of electric origin ... ( -3.2520,  5.3776, -3.0848) 
Choice of magnetic origin   ... GIAO
Position of magnetic origin ... (  0.0000,  0.0000,  0.0000) 

Calculating integrals                     ... Electric Dipole (Length)     done (  0.0 sec)
Calculating integrals                     ... Linear Momentum              done (  0.0 sec)
Calculating integrals                     ... Angular Momentum  (ElOri)    done (  0.0 sec)

Property integrals calculated in   0.0 sec

Maximum memory used throughout the entire PROPINT-calculation: 6.5 MB


           ************************************************************
           *        Program running with 8 parallel MPI-processes     *
           *              working on a common directory               *
           ************************************************************


--------------------------------------------------------------------------------
                             ORCA-MATRIX DRIVEN CI
--------------------------------------------------------------------------------

--------------------------------
AUTOMATIC CHOICE OF INCORE LEVEL
--------------------------------

Memory available                           ...   4500.00 MB
Memory needed for S+T                      ...      0.85 MB
Memory needed for J+K                      ...      1.71 MB
Memory needed for DIIS                     ...     11.92 MB
Memory needed for 3-ext                    ...      6.93 MB
Memory needed for 4-ext                    ...     53.68 MB
Memory needed for triples                  ...      8.66 MB
 -> Final InCoreLevel    ... 5
 -> check shows that triples correction can be computed


Wavefunction type
-----------------
Correlation treatment                      ...      CCSD     
Single excitations                         ... ON
Orbital optimization                       ... OFF
Calculation of Z vector                    ... OFF
Calculation of Brueckner orbitals          ... OFF
Perturbative triple excitations            ... ON
Calculation of F12 correction              ... ON
   Using RI for F12 correction             ... ON
Frozen core treatment                      ... chemical core (2 el)
Reference Wavefunction                     ... UHF
  Alpha-MOs occ    :     1 ...    4 (  4 MO's/  4 electrons)
  Beta-MOs occ     :     1 ...    4 (  4 MO's/  4 electrons)
  Alpha-MOs virt   :     5 ...   65 ( 61 MO's              )
  Beta-MOs virt    :     5 ...   65 ( 61 MO's              )
Number of AO's                             ...     66
Number of electrons                        ...     10
Number of correlated electrons             ...      8

Algorithmic settings
--------------------
Integral transformation                    ... Separate K and J transformations
K(C) Formation                             ... AO-EXCHANGE STORED
Maximum number of iterations               ...        50
Convergence tolerance (max. residuum)      ... 2.500e-05
Level shift for amplitude update           ... 2.000e-01
Maximum number of DIIS vectors             ...         7
DIIS turned on at iteration                ...         0
Damping before turning on DIIS             ...     0.500
Damping after turning on DIIS              ...     0.000
Pair specific amplitude update             ... OFF
Natural orbital iterations                 ... OFF
Perturbative natural orbital generation    ... OFF
Printlevel                                 ... 2

Memory handling:
----------------
Maximum memory for working arrays          ...   4500 MB
Data storage in matrix containers          ... UNCOMPRESSED
Data type for integral storage             ... DOUBLE
In-Core Storage of quantities:
   Amplitudes+Sigma Vector      ... YES
   J+K operators                ... YES
   DIIS vectors                 ... YES
   3-external integrals         ... YES
   4-external integrals         ... YES


Initializing the integral package          ... done
Warning: reference  - re-canonicalizations have been set to INT 1 VIRT 1
Fock densities were made 
Making Fock matrix and reference energy:

--------------------------
UNRESTRICTED FOCK OPERATOR
--------------------------

Recanonicalizing the internal orbitals
Recanonicalizing the virtual orbitals
Storing new orbitals
Time needed for Fock operator              ...            0.043 sec
Reference energy                           ...    -40.212256253

-------------------------
SHARK HALF TRANSFORMATION
-------------------------

Number of basis functions                ...     66
Number of operators                      ...      2
   Operator  0:    1-   4

   Operator  1:    1-   4

Integral generator used                  ... SHARK
Contraction scheme used                  ... SEGMENTED CONTRACTION
MaxCore in resort                        ...   9000 MB

Half transformed integrals for op=   0   ... sp.SHARK_MNPQ0.tmp
Resorted half transformed integrals      ... sp._PQMN_0.tmp
Half transformed integrals for op=   1   ... sp.SHARK_MNPQ1.tmp
Resorted half transformed integrals      ... sp._PQMN_1.tmp
Starting integral generation + half trafo... 
Half trafo (segmented) done. Total time =  0.1 sec. integrals=  0.0 sec trafo=  0.0 sec
Starting integral resorting              ... done (  0.0 sec)

SHARK half integral transformation done. Total time =  0.1 sec.

----------------------------------
J-TRAFO SECOND HALF TRANSFORMATION
----------------------------------

Generate (ij|kl)                        ... NO
Generate (ij|ka)                        ... YES
Generate (ij|ab)                        ... YES
Generate (ia|bc)                        ... NO
Generate (ab|cd)                        ... NO
Generate (pq|rs)                        ... NO

Number of operators                     ... 2
   Operator 0                           ...    1-   4 to    5-  65
   PQMN-Container name                  ... sp._PQMN_0.tmp
   IJKA-Container name    op=0,0        ... sp._IJKA_0.tmp
   IJAB-Container name    op=0,0        ... sp._IJAB_0.tmp
   IJKA-Container name    op=0,1        ... sp._IJKA_2.tmp
   IJAB-Container name    op=0,1        ... sp._IJAB_2.tmp
   Operator 1                           ...    1-   4 to    5-  65
   PQMN-Container name                  ... sp._PQMN_1.tmp
   IJKA-Container name    op=1,0        ... sp._IJKA_3.tmp
   IJAB-Container name    op=1,0        ... sp._IJAB_3.tmp
   IJKA-Container name    op=1,1        ... sp._IJKA_1.tmp
   IJAB-Container name    op=1,1        ... sp._IJAB_1.tmp

Starting integral transformations       ... done
Completed Coulomb integral formation in   0.0 sec


-------------------------
SHARK HALF TRANSFORMATION (Exchange order)
-------------------------

Number of basis functions                   ...     66
Number of operators                         ...      2
   Operator  0:    1-   4 (p-index in (p*|q*))
   Operator  0:    1-  65 (q-index in (p*|q*)
   Operator  1:    1-   4 (p-index in (p*|q*))
   Operator  1:    1-  65 (q-index in (p*|q*)
Integral generator used                     ... SHARK
Contraction scheme used                     ... SEGMENTED CONTRACTION
MaxCore in resort                           ...   9000 MB

Half transformed integrals for op=   0      ... sp.SHARK_MNPQ0.tmp
Resorted half transformed integrals         ... sp._PMQN_0.tmp
Half transformed integrals for op=   1      ... sp.SHARK_MNPQ1.tmp
Resorted half transformed integrals         ... sp._PMQN_1.tmp
Half transformed integrals for op=0/1       ... sp.SHARK_MNPQ01.tmp
Resorted half transformed integrals         ... sp._PMQN_2.tmp
Half transformed integrals for op=1/0       ... sp.SHARK_MNPQ10.tmp
Resorted half transformed integrals         ... sp._PMQN_3.tmp

Half trafo (segmented) done. Total time =  0.2 sec. integrals=  0.0 sec trafo=  0.0 sec

----------------------
SHARK INTEGRAL SORTING (Exchange)
----------------------

Input container                             ... sp.SHARK_MNPQ0.tmp
Output container                            ... sp._PMQN_0.tmp
Range of AO-indices                         ...    0 -   65
Range of bra indices i                      ...    1 -    4
Range of ket indices j                      ...    1 -   65
Symmetric i,j range                         ... NO
Number of (i,j) pairs generated             ...  260
Max Core memory in MB                       ...   9000

Available core memory in MB                 ...   8966.51
MB needed for one item                      ...      0.03
Fixed MB needed                             ...      0.00
Number of items                             ...        33
Number of batches                           ...         1
Items treated per batch                     ...        33
Batch   0                                   ...      0-    32 (    33)
   => Closing output file and leaving

----------------------
SHARK INTEGRAL SORTING (Exchange)
----------------------

Input container                             ... sp.SHARK_MNPQ1.tmp
Output container                            ... sp._PMQN_1.tmp
Range of AO-indices                         ...    0 -   65
Range of bra indices i                      ...    1 -    4
Range of ket indices j                      ...    1 -   65
Symmetric i,j range                         ... NO
Number of (i,j) pairs generated             ...  260
Max Core memory in MB                       ...   9000

Available core memory in MB                 ...   8966.57
MB needed for one item                      ...      0.03
Fixed MB needed                             ...      0.00
Number of items                             ...        33
Number of batches                           ...         1
Items treated per batch                     ...        33
Batch   0                                   ...      0-    32 (    33)
   => Closing output file and leaving

----------------------
SHARK INTEGRAL SORTING (Exchange)
----------------------

Input container                             ... sp.SHARK_MNPQ01.tmp
Output container                            ... sp._PMQN_2.tmp
Range of AO-indices                         ...    0 -   65
Range of bra indices i                      ...    1 -    4
Range of ket indices j                      ...    1 -   65
Symmetric i,j range                         ... NO
Number of (i,j) pairs generated             ...  260
Max Core memory in MB                       ...   9000

Available core memory in MB                 ...   8966.62
MB needed for one item                      ...      0.03
Fixed MB needed                             ...      0.00
Number of items                             ...        33
Number of batches                           ...         1
Items treated per batch                     ...        33
Batch   0                                   ...      0-    32 (    33)
   => Closing output file and leaving

----------------------
SHARK INTEGRAL SORTING (Exchange)
----------------------

Input container                             ... sp.SHARK_MNPQ10.tmp
Output container                            ... sp._PMQN_3.tmp
Range of AO-indices                         ...    0 -   65
Range of bra indices i                      ...    1 -    4
Range of ket indices j                      ...    1 -   65
Symmetric i,j range                         ... NO
Number of (i,j) pairs generated             ...  260
Max Core memory in MB                       ...   9000

Available core memory in MB                 ...   8966.67
MB needed for one item                      ...      0.03
Fixed MB needed                             ...      0.00
Number of items                             ...        33
Number of batches                           ...         1
Items treated per batch                     ...        33
Batch   0                                   ...      0-    32 (    33)
   => Closing output file and leaving
done (  0.1 sec)

SHARK half integral transformation done. Total time =  0.3 sec.

----------------------------------
K-TRAFO SECOND HALF TRANSFORMATION
----------------------------------

Generate (ik|jl)                        ... YES
Generate (ik|ja)                        ... YES
Generate (ia|jb)                        ... YES
Generate (ib|ac)                        ... YES
Generate (ac|bd)                        ... NO
Generate (pr|qs)                        ... NO

Number of operators                     ... 2
   Operator 0                           ...    1-   4 to    5-  65
   Operator 1                           ...    1-   4 to    5-  65

Starting integral transformations       ... done
Completed Exchange integral formation in   0.0 sec


------------------------------
Initializing F12 data (SHARK)
------------------------------

Mapping basis set                  ... done
Dimension of the orbital basis set  = 66
Dimension of the CABS basis set     = 237
Dimension of the AUX basis set      = 201
Threshold for CABS orthogonalization = 1.000e-08
Test shows that OBS-bases are identical for ORCA and SHARK (good)
Test shows that CABS-bases are identical for ORCA and SHARK (good)
Will use an exponential correlation factor -Exp(-gamma r12)/gamma (gamma= 0.900) fit to 6 Gaussians 
Correlation factor:   
  NGauss  :          6      
  Gaussian expansion: 
    a( 0)=    0.1948458954898069  d( 0)=   -0.3837757042467722 
    a( 1)=    0.9387038354476187  d( 1)=   -0.3334018173527373 
    a( 2)=    3.4610351718196344  d( 2)=   -0.1753946778698117 
    a( 3)=   11.7049811259564009  d( 3)=   -0.1006409547412648 
    a( 4)=   44.2276114110074730  d( 4)=   -0.0614475918190023 
    a( 5)=  245.3721697105246733  d( 5)=   -0.0379425511812079 
Calculating one-electron matrices                       ... (SHARK)done (      0.0 sec)
Calculating pre-screening matrices:                     ... 
     (LIBINT-0)       .... 1/r12 done          (      0.1 sec)
     (LIBINT-1)       .... f12/r12 done        (      0.0 sec)
     (LIBINT-2)       .... f12 done            (      0.0 sec)
     (LIBINT-3)       .... f12^2 done          (      0.0 sec)
     (LIBINT-4)       .... [f12,[T1,f12]] done (      0.0 sec)
                                                        ... done (      0.2 sec)
Making CABS spaces                                      ... done (      0.0 sec)
Calculating 2-index 2-center F12 integrals              ... 
Two index explicit correlation integrals  op=0          ...(SHARK-0) done (      0.0 sec)  Metric   done (      0.0 sec)
Two index explicit correlation integrals  op=1          ...(SHARK-1) done (      0.0 sec)  Metric   done (      0.0 sec)
Two index explicit correlation integrals  op=2          ...(SHARK-2) done (      0.0 sec)  Metric   done (      0.0 sec)
Two index explicit correlation integrals  op=3          ...(SHARK-3) done (      0.0 sec)  Metric   done (      0.0 sec)
Two index explicit correlation integrals  op=4          ...(SHARK-4) done (      0.0 sec)  Metric   done (      0.0 sec)
                                                                     done (      0.0 sec)

-----------------------
SPIN UNRESTRICTED GUESS
-----------------------

Spin-components of the MP2 energy:
EMP2(aa)=     -0.017333308
EMP2(bb)=     -0.017333308
EMP2(ab)=     -0.148785603

Initial guess performed in     0.005 sec
E(0)                                       ...    -40.212256253
E(MP2)                                     ...     -0.183452220
Initial E(tot)                             ...    -40.395708473
<T|T>                                      ...      0.058923798
Number of pairs included                   ... 28

------------------------------------------------
                  UHF COUPLED CLUSTER ITERATIONS
------------------------------------------------

Number of amplitudes to be optimized       ...        82100

Iter       E(tot)           E(Corr)          Delta-E          Residual     Time      <S|S>**1/2
  0    -40.395708473     -0.183452220     -0.000000000      0.009619575    0.21      0.000003417
                           *** Turning on DIIS ***
  1    -40.409844774     -0.197588521     -0.014136301      0.004625886    0.16      0.014792230
  2    -40.415657594     -0.203401340     -0.005812819      0.001323850    0.17      0.018511293
  3    -40.416646379     -0.204390126     -0.000988786      0.000334921    0.15      0.020074495
  4    -40.416765163     -0.204508909     -0.000118783      0.000047542    0.15      0.020512477
  5    -40.416781497     -0.204525244     -0.000016335      0.000009839    0.15      0.020622997
               --- The Coupled-Cluster iterations have converged ---
--------------------
CC F12/RI CORRECTION
--------------------

Doing density matrix                                    ... done (      0.0 sec)
Calculating Coulomb operators
       .... OBS/OBS done        (      0.0 sec, SHARK-SC)
       .... CABS/OBS done       (      0.2 sec, LIBINT  )
       .... CABS/CABS done      (      0.2 sec, LIBINT  )
Calculating Exchange operators
       .... OBS/OBS done        (      0.1 sec, LIBINT  )
       .... CABS/OBS done       (      0.4 sec, LIBINT  )
       .... CABS/CABS done      (      0.5 sec, LIBINT  )
       .... exchange build done (      0.9 sec)
Completing Fock operators                               ... done (      0.0 sec)
Entering three index integral routine
Three index transformation (OBS,OBS/AUX) for  op=0      ... (SHARK ) done (      0.0 sec)
Three index transformation (OBS,CABS/AUX) for op=0      ... (LIBINT) done (      0.1 sec)
Three index transformation (OBS,OBS/AUX) for  op=1      ... (SHARK ) done (      0.0 sec)
Three index transformation (OBS,CABS/AUX) for op=1      ... (LIBINT) done (      0.1 sec)
Three index transformation (OBS,OBS/AUX) for  op=2      ... (SHARK ) done (      0.0 sec)
Three index transformation (OBS,CABS/AUX) for op=2      ... (LIBINT) done (      0.1 sec)
Three index transformation (OBS,OBS/AUX) for  op=3      ... (SHARK ) done (      0.0 sec)
Three index transformation (OBS,CABS/AUX) for op=3      ... (LIBINT) done (      0.1 sec)
Three index transformation (OBS,OBS/AUX) for  op=4      ... (SHARK ) done (      0.0 sec)
Three index transformation (OBS,CABS/AUX) for op=4      ... (LIBINT) done (      0.1 sec)
Three index transformation (OBS_F,OBS/AUX) for  op=2    ... (LIBINT) done (      0.1 sec)
Three index transformation (OBS_F,CABS/AUX) for op=2    ... (SHARK ) done (      0.1 sec)
Recalculating the K(C) operators (Opt=   AOX)           ... done (      0.1 sec)
Calculating F12 intermediates (incore)                  ... done (      0.1 sec)
     Startup integrals           ...     0.007 sec
     OBS/OBS integrals           ...     0.003 sec
     CABS/OBS integrals          ...     0.009 sec
     CABS/CABS integrals         ...     0.003 sec
     Vij intermediate            ...     0.000 sec
     Xij intermediate            ...     0.000 sec
     Bij intermediate            ...     0.021 sec
     BS-tilde ij intermediate    ...     0.000 sec
     Vbar-ij intermediate        ...     0.001 sec
     Hartree-Fock correction     ...     0.001 sec
Calculating correlation correction                      ... done (    0.001 sec)

F12 correction                   :  -0.022927286615
Hartree-Fock correction          :  -0.002064991973
Sum of the two                   :  -0.024992278588
Total time for F12 correction    :     2.297 sec
  .... cleaning up and leaving CC-F12/RI

----------------------
COUPLED CLUSTER ENERGY
----------------------

Uncorrected 0th order energy               ...    -40.212256253
F12-HF basis set correction                ...     -0.002064992
Corrected 0th order energy                 ...    -40.214321245

Uncorrected correlation energy             ...     -0.204525244
F12-correction to the correlation energy   ...     -0.022927287
Final F12 correlation energy               ...     -0.227452531

E(TOT)-before F12 corrections              ...    -40.416781497
E(TOT)-after HF correction                 ...    -40.418846489
E(TOT)-after all F12 corrections           ...    -40.441773776

Singles norm <S|S>**1/2                    ...      0.020622997 ( 0.010311498, 0.010311498)  
T1 diagnostic                              ...      0.007291330                              

------------------
LARGEST AMPLITUDES
------------------
   4a-> 18a   4b-> 18b       0.033463
   2a-> 20a   2b-> 20b       0.026913
   3a-> 19a   3b-> 19b       0.026692
   4a-> 18a   4b->  9b       0.024236
   4a->  9a   4b-> 18b       0.024236
   4a->  9a   4b->  9b       0.020127
   2a-> 20a   2b-> 11b       0.019109
   2a-> 11a   2b-> 20b       0.019109
   3a-> 19a   3b-> 10b       0.019006
   3a-> 10a   3b-> 19b       0.019006
   4a-> 15a   4b-> 15b       0.018811
   2a-> 19a   2b-> 19b       0.015907
   2a-> 11a   2b-> 11b       0.015413
   3a-> 10a   3b-> 10b       0.015389
   3a-> 20a   3b-> 20b       0.014782
   2a-> 16a   2b-> 16b       0.014082

----------------------
UHF TRIPLES CORRECTION (Algorithm 1)
----------------------

Multiplier for the singles contribution    ...      1.000000000

SPIN-CASE Alpha-Alpha-Alpha:
10% done
20% done
30% done
40% done
50% done
60% done
70% done
80% done
90% done


SPIN-CASE Beta-Beta-Beta:
10% done
20% done
30% done
40% done
50% done
60% done
70% done
80% done
90% done


SPIN-CASE Alpha-Alpha-Beta:
10% done
20% done
30% done
40% done
50% done
60% done
70% done
80% done
90% done


SPIN-CASE Beta-Beta-Alpha:
10% done
20% done
30% done
40% done
50% done
60% done
70% done
80% done
90% done


Triples Correction (T)                     ...     -0.005691515
    alpha-alpha-alpha ... -0.000101024 (  1.8%)
    alpha-alpha-beta  ... -0.002744734 ( 48.2%)
    alpha-beta -beta  ... -0.002744734 ( 48.2%)
    beta -beta -beta  ... -0.000101024 (  1.8%)
Scaling of triples based on CCSD energies (Peterson et al. Molecular Physics 113, 1551 (2015))
E(T*) = f*E(T) where f = E(F12-CCSD)/E(CCSD) 
f = CCSD (with F12)/ CCSD (without F12)    ...      1.112100033
Scaled triples correction (T)              ...     -0.006329534

Final correlation energy (without F12)     ...     -0.210216759
Final correlation energy (with F12)        ...     -0.233144045
Final correlation energy (CCSD scaled (T)) ...     -0.233782064
F12-E(CCSD)                                ...    -40.441773776
F12-E(CCSD(T))                             ...    -40.447465291
F12-ECCSD(T) with (T) scaled through CCSD  ...    -40.448103310



        !!!!!!!!!!!!!!!!!!!!!!!!!!!!!!!!!!!!!!!!!!!!!!!!!!!!!!!!!!!!!!!!!!!!!!!!!! 
        !  Warning: Densities are linearized densities                           !
        !!!!!!!!!!!!!!!!!!!!!!!!!!!!!!!!!!!!!!!!!!!!!!!!!!!!!!!!!!!!!!!!!!!!!!!!!! 

NORM  =      1.077899217 sqrt=     1.038219253
W(HF) =      0.927730519
------------------------------------------------------------------------------
                           ORCA POPULATION ANALYSIS
------------------------------------------------------------------------------
Input electron density              ... sp.mdcip
Input spin density                  ... sp.mdcir
BaseName (.gbw .S,...)              ... sp

                    ********************************
                    * MULLIKEN POPULATION ANALYSIS *
                    ********************************

------------------------------------------
MULLIKEN ATOMIC CHARGES AND SPIN DENSITIES
------------------------------------------
   0 C :   -0.565808   -0.000000
   1 H :    0.141453   -0.000000
   2 H :    0.141452    0.000000
   3 H :    0.141451    0.000000
   4 H :    0.141452    0.000000
Sum of atomic charges       :   -0.0000000
Sum of atomic spin densities:   -0.0000000

---------------------------------------------------
MULLIKEN REDUCED ORBITAL CHARGES AND SPIN DENSITIES
---------------------------------------------------
CHARGE
  0 C s       :     3.300832  s :     3.300832
      pz      :     1.062831  p :     3.188492
      px      :     1.062831
      py      :     1.062831
      dz2     :     0.016110  d :     0.076483
      dxz     :     0.014080
      dyz     :     0.015428
      dx2y2   :     0.018502
      dxy     :     0.012363
  1 H s       :     0.830100  s :     0.830100
      pz      :     0.010788  p :     0.028447
      px      :     0.007134
      py      :     0.010525
  2 H s       :     0.830101  s :     0.830101
      pz      :     0.009426  p :     0.028447
      px      :     0.009868
      py      :     0.009153
  3 H s       :     0.830102  s :     0.830102
      pz      :     0.007502  p :     0.028447
      px      :     0.010142
      py      :     0.010803
  4 H s       :     0.830101  s :     0.830101
      pz      :     0.010214  p :     0.028447
      px      :     0.010785
      py      :     0.007448

SPIN
  0 C s       :    -0.000000  s :    -0.000000
      pz      :    -0.000000  p :    -0.000000
      px      :    -0.000000
      py      :     0.000000
      dz2     :    -0.000000  d :     0.000000
      dxz     :    -0.000000
      dyz     :     0.000000
      dx2y2   :     0.000000
      dxy     :     0.000000
  1 H s       :    -0.000000  s :    -0.000000
      pz      :     0.000000  p :    -0.000000
      px      :    -0.000000
      py      :    -0.000000
  2 H s       :     0.000000  s :     0.000000
      pz      :     0.000000  p :     0.000000
      px      :     0.000000
      py      :     0.000000
  3 H s       :     0.000000  s :     0.000000
      pz      :     0.000000  p :    -0.000000
      px      :    -0.000000
      py      :    -0.000000
  4 H s       :     0.000000  s :     0.000000
      pz      :     0.000000  p :     0.000000
      px      :    -0.000000
      py      :     0.000000


                     *******************************
                     * LOEWDIN POPULATION ANALYSIS *
                     *******************************

-----------------------------------------
LOEWDIN ATOMIC CHARGES AND SPIN DENSITIES
-----------------------------------------
   0 C :    0.005134   -0.000000
   1 H :   -0.001284   -0.000000
   2 H :   -0.001283    0.000000
   3 H :   -0.001283    0.000000
   4 H :   -0.001284   -0.000000

--------------------------------------------------
LOEWDIN REDUCED ORBITAL CHARGES AND SPIN DENSITIES
--------------------------------------------------
CHARGE
  0 C s       :     2.715011  s :     2.715011
      pz      :     1.028567  p :     3.085703
      px      :     1.028568
      py      :     1.028568
      dz2     :     0.042231  d :     0.194152
      dxz     :     0.033746
      dyz     :     0.039380
      dx2y2   :     0.052224
      dxy     :     0.026570
  1 H s       :     0.804407  s :     0.804407
      pz      :     0.053686  p :     0.196878
      px      :     0.087104
      py      :     0.056088
  2 H s       :     0.804407  s :     0.804407
      pz      :     0.066143  p :     0.196876
      px      :     0.062093
      py      :     0.068640
  3 H s       :     0.804406  s :     0.804406
      pz      :     0.083735  p :     0.196877
      px      :     0.059595
      py      :     0.053547
  4 H s       :     0.804406  s :     0.804406
      pz      :     0.058938  p :     0.196877
      px      :     0.053711
      py      :     0.084229

SPIN
  0 C s       :    -0.000000  s :    -0.000000
      pz      :    -0.000000  p :    -0.000000
      px      :    -0.000000
      py      :     0.000000
      dz2     :     0.000000  d :     0.000000
      dxz     :     0.000000
      dyz     :     0.000000
      dx2y2   :    -0.000000
      dxy     :     0.000000
  1 H s       :    -0.000000  s :    -0.000000
      pz      :    -0.000000  p :    -0.000000
      px      :    -0.000000
      py      :    -0.000000
  2 H s       :     0.000000  s :     0.000000
      pz      :    -0.000000  p :    -0.000000
      px      :     0.000000
      py      :    -0.000000
  3 H s       :     0.000000  s :     0.000000
      pz      :    -0.000000  p :    -0.000000
      px      :     0.000000
      py      :    -0.000000
  4 H s       :    -0.000000  s :    -0.000000
      pz      :    -0.000000  p :    -0.000000
      px      :    -0.000000
      py      :    -0.000000


                      *****************************
                      * MAYER POPULATION ANALYSIS *
                      *****************************

  NA   - Mulliken gross atomic population
  ZA   - Total nuclear charge
  QA   - Mulliken gross atomic charge
  VA   - Mayer's total valence
  BVA  - Mayer's bonded valence
  FA   - Mayer's free valence

  ATOM       NA         ZA         QA         VA         BVA        FA
  0 C      6.5658     6.0000    -0.5658     4.0012     3.6623     0.3389
  1 H      0.8585     1.0000     0.1415     0.9800     0.9127     0.0673
  2 H      0.8585     1.0000     0.1415     0.9800     0.9127     0.0673
  3 H      0.8585     1.0000     0.1415     0.9800     0.9127     0.0673
  4 H      0.8585     1.0000     0.1415     0.9800     0.9127     0.0673

  Mayer bond orders larger than 0.100000
B(  0-C ,  1-H ) :   0.9156 B(  0-C ,  2-H ) :   0.9156 B(  0-C ,  3-H ) :   0.9156 
B(  0-C ,  4-H ) :   0.9156 



--------------------------------------------------------------------------------
                                    TIMINGS
--------------------------------------------------------------------------------


Total execution time                   ...        4.608 sec

Fock Matrix Formation                  ...        0.043 sec (  0.9%)
Initial Guess                          ...        0.005 sec (  0.1%)
DIIS Solver                            ...        0.016 sec (  0.3%)
State Vector Update                    ...        0.002 sec (  0.1%)
Sigma-vector construction              ...        0.976 sec ( 21.2%)
  <0|H|D>                              ...        0.002 sec (  0.2% of sigma)
  <D|H|D>(0-ext)                       ...        0.001 sec (  0.1% of sigma)
  <D|H|D>(2-ext)                       ...        0.021 sec (  2.1% of sigma)
  <D|H|D>(4-ext)                       ...        0.494 sec ( 50.6% of sigma)
  <S|H|0>                              ...        0.024 sec (  2.5% of sigma)
  <S|H|D>(1-ext)                       ...        0.001 sec (  0.1% of sigma)
  <D|H|S>(1-ext)                       ...        0.006 sec (  0.6% of sigma)
  Fock-dressing                        ...        0.196 sec ( 20.1% of sigma)
  (ik|jl)-dressing                     ...        0.057 sec (  5.9% of sigma)
  (ij|ab),(ia|jb)-dressing             ...        0.135 sec ( 13.8% of sigma)
  Pair energies                        ...        0.001 sec (  0.2% of sigma)
Total Time for computing (T)           ...        0.138 sec (  3.0% of ALL)
  I/O of integral and amplitudes       ...        0.051 sec ( 36.6% of (T))
  External N**7 contributions          ...        0.034 sec ( 24.5% of (T))
  Internal N**7 contributions          ...        0.009 sec (  6.5% of (T))
  N**6 triples energy contributions    ...        0.035 sec ( 25.5% of (T))


Maximum memory used throughout the entire MDCI-calculation: 125.6 MB

-------------------------   --------------------
FINAL SINGLE POINT ENERGY       -40.447465290815
-------------------------   --------------------



           ************************************************************
           *        Program running with 8 parallel MPI-processes     *
           *              working on a common directory               *
           ************************************************************

------------------------------------------------------------------------------
                              ORCA PROPERTY CALCULATIONS
------------------------------------------------------------------------------

GBWName                                 ... sp.gbw
Number of atoms                         ...      5
Number of basis functions               ...     72
Max core memory                         ...   9000 MB

Electric properties:
Dipole moment                           ... YES
Quadrupole moment                       ...  NO
Static polarizability (Dipole/Dipole)   ...  NO
Static polarizability (Dipole/Quad.)    ...  NO
Static polarizability (Quad./Quad.)     ...  NO
Static polarizability (Velocity)        ...  NO
Static hyperpolarizability              ...  NO

Atomic electric properties:
Dipole moment                           ...  NO
Quadrupole moment                       ...  NO
Static polarizability                   ...  NO

Choice of electric origin               ... Center of mass
Position of electric origin             ...    -3.251971     5.377626    -3.084817

General magnetic properties:
Magnetizability                         ...  NO

EPR properties:
g-Tensor (aka g-matrix)                 ...  NO
Zero-Field splitting spin-orbit         ...  NO
Zero-field splitting spin-spin          ...  NO
Hyperfine couplings                     ...  NO (   0 nuclei)
Quadrupole couplings                    ...  NO (   0 nuclei)
Contact density                         ...  NO (   0 nuclei)

NMR properties:
Chemical shifts                         ...  NO (   0 nuclei)
Spin-rotation constants                 ...  NO (   0 nuclei)
Spin-spin couplings                     ...  NO (   0 nuclei,    0 pairs)

Choice of magnetic origin               ... GIAO
Position of magnetic origin             ...     0.000000     0.000000     0.000000

Properties with geometric perturbations:
SCF Hessian                             ...  NO
IR spectrum                             ...  NO
VCD spectrum                            ...  NO
X-ray spectroscopy properties:
SCF XES/XAS/RIXS spectra                ...  NO

SCF SOC stabilization energy            ...  NO
Diagonal Born-Oppenheimer correction    ...  NO

-------------
DIPOLE MOMENT
-------------

Method             : SCF
Type of density    : Electron Density
Multiplicity       :   1
Irrep              :   0
Energy             :   -40.2122562533554202 Eh
Basis              : AO
                                X                 Y                 Z
Electronic contribution:      0.000002643       0.000003484       0.000008616
Nuclear contribution   :     -0.000002082      -0.000004535      -0.000009965
                        -----------------------------------------
Total Dipole Moment    :      0.000000561      -0.000001051      -0.000001348
                        -----------------------------------------
Magnitude (a.u.)       :      0.000001799
Magnitude (Debye)      :      0.000004573



--------------------
Rotational spectrum 
--------------------
 
Rotational constants in cm-1:             5.289085             5.289067             5.289052 
Rotational constants in MHz :        158562.787687        158562.251722        158561.776693 

Dipole components along the rotational axes: 
x,y,z [a.u.] :    -0.000002    -0.000000     0.000000 
x,y,z [Debye]:    -0.000004    -0.000001     0.000001 

 

-------------
DIPOLE MOMENT
-------------

Method             : MDCI(SD)
Type of density    : Electron Density
Multiplicity       :   1
Level              : Linearized density
Irrep              :   0
Energy             :     0.0000000000000000 Eh
Basis              : AO
                                X                 Y                 Z
Electronic contribution:      0.000002559       0.000003650       0.000008770
Nuclear contribution   :     -0.000002082      -0.000004535      -0.000009965
                        -----------------------------------------
Total Dipole Moment    :      0.000000477      -0.000000885      -0.000001195
                        -----------------------------------------
Magnitude (a.u.)       :      0.000001561
Magnitude (Debye)      :      0.000003968



--------------------
Rotational spectrum 
--------------------
 
Rotational constants in cm-1:             5.289085             5.289067             5.289052 
Rotational constants in MHz :        158562.787687        158562.251722        158561.776693 

Dipole components along the rotational axes: 
x,y,z [a.u.] :    -0.000002    -0.000000     0.000000 
x,y,z [Debye]:    -0.000004    -0.000001     0.000001 

 

Dipole moment calculation done in   0.0 sec 

Maximum memory used throughout the entire PROP-calculation: 8.3 MB

--------------------------------
SUGGESTED CITATIONS FOR THIS RUN
--------------------------------

Below you find a list of papers that are relevant to this ORCA run
We neither can nor want to force you to cite these papers, but we appreciate if you do
You receive ORCA, which is the product of decades of hard work by many enthusiastic individuals, for free
The only thing we kindly ask in return is that you cite our papers,
We deeply appreciate it, if you show your appreciation for ORCA by not just citing the generic ORCA reference.

Please note that relegating all ORCA citations to the supporting information does *not* help us.
SI sections are not indexed - citations you put there will not count into any citation statistics
But we need these citations in order to attract the funding resources that allow us to do what we are doing

Therefore, if you are a happy ORCA user, please consider citing a few of the papers listed below in the main body of your paper

In addition to the list printed below, the program has created the file sp.bibtex that contains the list in bibtex format
You can import this file easily into all common literature databanks and citation aid programs

It goes without saying that in many instances, there are alternative algorithms to achieve similar
results as the ones you have gotten from ORCA. It is, of course, also the case that in some instances
ORCA just re-implements algorithms worked out by others. We are fully aware of that and we are also
fully appreciative of our colleagues work. Hence this citation list should not be read as indicating
that the listed papers, which are focused on our own work, are the only ones worth citing. It simply
meant to make it easier for users to cite ORCA specific papers. It is not a substitute for doing your
own literature research and citing the relevant literature in a scientifically appropriate manner.

List of essential papers. We consider these as the minimum necessary citations

  1. Neese, F.
     Software update: the ORCA program system, version 6.0
     WIRES Comput. Molec. Sci. 2025 15(1), e70019
     doi.org/10.1002/wcms.70019

List of papers to cite with high priority. The work reported in these papers was absolutely
necessary for this run to complete.
Our perspective: the developers of density functionals and basis sets usually get cited in chemistry papers
Good! But without the algorithms to do something with them, the functionals or basis sets would not do anything.
Hence, in our opinion, the algorithm design and method developments papers are equally worthy of getting cited

  1. Pavosevic, F.; Neese, F.; Valeev, E.F.
     Geminal-spanning orbitals make explicitly correlated reduced-scaling coupled-cluster methods robust, yet simple
     J. Chem. Phys. 2014 141 , 
     doi.org/10.1063/1.4890002
  2. Neese, F.
     The SHARK Integral Generation and Digestion System
     J. Comp. Chem. 2022 44(3), 381
     doi.org/10.1002/jcc.26942

List of suggested additional citations. These are papers that are important in the 'surrounding' of 
of this run, or papers that preceded the highly important papers. If you like your results we are grateful for a citation.

  1. Neese, F.
     The ORCA program system
     WIRES Comput. Molec. Sci. 2012 2(1), 73-78
     doi.org/10.1002/wcms.81
  2. Neese, F.
     Software update: the ORCA program system, version 4.0
     WIRES Comput. Molec. Sci. 2018 8(1), 1-6
     doi.org/10.1002/wcms.1327
  3. Neese, F.; Wennmohs, F.; Becker, U.; Riplinger, C.
     The ORCA quantum chemistry program package
     J. Chem. Phys. 2020 152(22), 224108
     doi.org/10.1063/5.0004608
  4. Neese, F.
     Software update: The ORCA program system—Version 5.0
     WIRES Comput. Molec. Sci. 2022 12(1), e1606
     doi.org/10.1002/wcms.1606

List of optional additional citations

  1. Neese, F.
     Approximate second-order SCF convergence for spin unrestricted wavefunctions
     Chem. Phys. Lett. 2000 325(1-3), 93-98
     doi.org/10.1016/s0009-2614(00)00662-x

Timings for individual modules:

Sum of individual times          ...       17.060 sec (=   0.284 min)
Startup calculation              ...        2.531 sec (=   0.042 min)  14.8 %
SCF iterations                   ...        4.191 sec (=   0.070 min)  24.6 %
Property integrals               ...        1.875 sec (=   0.031 min)  11.0 %
Property calculations            ...        1.962 sec (=   0.033 min)  11.5 %
MDCI module                      ...        6.502 sec (=   0.108 min)  38.1 %
                             ****ORCA TERMINATED NORMALLY****
TOTAL RUN TIME: 0 days 0 hours 0 minutes 18 seconds 950 msec
