
                                 *****************
                                 * O   R   C   A *
                                 *****************

                                            #,                                       
                                            ###                                      
                                            ####                                     
                                            #####                                    
                                            ######                                   
                                           ########,                                 
                                     ,,################,,,,,                         
                               ,,#################################,,                 
                          ,,##########################################,,             
                       ,#########################################, ''#####,          
                    ,#############################################,,   '####,        
                  ,##################################################,,,,####,       
                ,###########''''           ''''###############################       
              ,#####''   ,,,,##########,,,,          '''####'''          '####       
            ,##' ,,,,###########################,,,                        '##       
           ' ,,###''''                  '''############,,,                           
         ,,##''                                '''############,,,,        ,,,,,,###''
      ,#''                                            '''#######################'''  
     '                                                          ''''####''''         
             ,#######,   #######,   ,#######,      ##                                
            ,#'     '#,  ##    ##  ,#'     '#,    #''#        ,####,    ,#,          
            ##       ##  ##   ,#'  ##            #'  '#       #'       ,# #          
            ##       ##  #######   ##           ,######,      #####,      #          
            '#,     ,#'  ##    ##  '#,     ,#' ,#      #,     #,   #      #          
             '#######'   ##     ##  '#######'  #'      '#     '####' #    #          



                #########################################################
                #                        -***-                          #
                #          Department of theory and spectroscopy        #
                #                                                       #
                #                      Frank Neese                      #
                #                                                       #
                #     Directorship, Architecture, Infrastructure        #
                #                    SHARK, DRIVERS                     #
                #        Core code/Algorithms in most modules           #
                #                                                       #
                #        Max Planck Institute fuer Kohlenforschung      #
                #                Kaiser Wilhelm Platz 1                 #
                #                 D-45470 Muelheim/Ruhr                 #
                #                      Germany                          #
                #                                                       #
                #                  All rights reserved                  #
                #                        -***-                          #
                #########################################################


                         Program Version 6.1.0  -  RELEASE   -
                                (GIT: $679e74b$)
                          ($2025-06-10 18:02:51 +0200$)


 With contributions from (in alphabetic order):
[Max-Planck-Institut fuer Kohlenforschung]                               
  Daniel Aravena         : Magnetic Suceptibility                        
  Michael Atanasov       : Ab Initio Ligand Field Theory (pilot matlab implementation)
  Alexander A. Auer      : GIAO ZORA, VPT2 properties, NMR spectrum      
  Ute Becker             : All parallelization in ORCA, NUMFREQ, NUMCALC 
  Giovanni Bistoni       : ED, misc. LED, open-shell LED, HFLD           
  Dmytro Bykov           : pre 5.0 version of the SCF Hessian            
  Marcos Casanova-Páez   : Triplet and SCS-CIS(D). UHF-(DLPNO)-IP/EA/STEOM-CCSD. UHF-CVS-IP/STEOM-CCSD   
  Vijay G. Chilkuri      : MRCI spin determinant printing, contributions to CSF-ICE 
  Pauline Colinet        : FMM embedding                                 
  Dipayan Datta          : RHF DLPNO-CCSD density                        
  Achintya Kumar Dutta   : EOM-CC, STEOM-CC                              
  Nicolas Foglia         : Exact transition moments, OPA infrastructure, MCD improvements    
  Dmitry Ganyushin       : Spin-Orbit,Spin-Spin,Magnetic field MRCI      
  Miquel Garcia-Rates    : C-PCM and meta-GGA Hessian, CCSD/C-PCM, Gaussian charge scheme 
  Tiago L. C. Gouveia    : GS-ROHF, GS-ROCIS                             
  Yang Guo               : DLPNO-NEVPT2, F12-NEVPT2, CIM, IAO-localization        
  Andreas Hansen         : Spin unrestricted coupled pair/coupled cluster methods 
  Ingolf Harden          : AUTO-CI MPn and infrastructure                
  Benjamin Helmich-Paris : MC-RPA, TRAH-(SCF,CASSCF), AVAS, COSX integrals, SCF dyn. polar., MC-PDFT, srDFT 
  Lee Huntington         : MR-EOM, pCC                                   
  Robert Izsak           : Overlap fitted RIJCOSX, COSX-SCS-MP3, EOM     
  Riya Kayal             : Wick's Theorem for AUTO-CI, AUTO-CI UHF-CCSDT 
  Emily Kempfer          : AUTO-CI RHF CISDT and CCSDT, approximate NEVPT4
  Christian Kollmar      : KDIIS, OOCD, Brueckner-CCSD(T), CCSD density, CASPT2, CASPT2-K, improved NEVPT2 
  Axel Koslowski         : Symmetry handling                             
  Simone Kossmann        : meta-GGA functionals, TD-DFT gradient, OOMP2, (MP2 Hessian; deprecated post 5.0) 
  Lucas Lang             : DCDCAS, Hyperfine gauge corrections, ICE-SOC+SSC
  Marvin Lechner         : AUTO-CI (C++ implementation), FIC-MRCC        
  Spencer Leger          : CASSCF response                               
  Dagmar Lenk            : GEPOL surface, SMD, ORCA-2-JSON               
  Dimitrios Liakos       : Extrapolation schemes; Compound Job, Property file
  Dimitrios Manganas     : Further ROCIS development; embedding schemes. LFT, Crystal Embedding 
  Dimitrios Pantazis     : SARC Basis sets                               
  Anastasios Papadopoulos: AUTO-CI, single reference methods and gradients 
  Taras Petrenko         : pre 6.0 DFT Hessian and TD-DFT gradient,  ECA, NRVS 
  Petra Pikulova         : Analytic Raman intensities                    
  Peter Pinski           : DLPNO-MP2, DLPNO-MP2 Gradient                 
  Shashank Vittal Rao    : ES-AILFT, MagRelax                            
  Christoph Reimann      : Effective Core Potentials                     
  Marius Retegan         : Local ZFS, SOC                                
  Christoph Riplinger    : Optimizer, TS searches, QM/MM, DLPNO-CCSD(T), (RO)-DLPNO pert. Triples 
  Michael Roemelt        : Original ROCIS implementation, recursive CI coupling coefficients
  Masaaki Saitow         : Open-shell DLPNO-CCSD energy and density      
  Barbara Sandhoefer     : DKH picture change effects                    
  Yorick L. A. Schmerwitz: GMF and freeze-and-release deltaSCF, NEB S-IDPP initial path                    
  Kantharuban Sivalingam : CASSCF convergence/infrastructure, NEVPT2, NEVPT3, NEVPT4(SD), FIC-MRCI and CEPA variants
  Bernardo de Souza      : ESD, SOC TD-DFT                               
  Georgi L. Stoychev     : AutoAux, RI-MP2 NMR, DLPNO-MP2 response, X2C  
  Van Anh Tran           : RI-MP2 g-tensors                              
  Willem Van den Heuvel  : Paramagnetic NMR                              
  Zikuan Wang            : NOTCH, Electric field optimization            
  Frank Wennmohs         : Technical directorship and infrastructure     
  Hang Xu                : AUTO-CI-Response properties                   
                                                                         
[FACCTs GmbH]                                                            
  Markus Bursch, Nicolas Foglia, Miquel Garcia-Rates, Ingolf Harden, Hagen Neugebauer, Anastasios Papadopoulos, 
  Christoph Riplinger, Bernardo de Souza, Georgi L. Stoychev                                                    
                                                                 
  APM, various basis sets, CI-OPT, improved COSX, DLPNO-Multilevel,           
  DOCKER, DRACO, updates on ESD, Fragmentator, GOAT, IRC, LR-CPCM, L-BFGS, MBIS, meta-GGA TD-DFT gradient, ML-optimized integration grids, 
  MM, NACMEs, nearIR, NEB, NEB-TS, NL-DFT gradient (VV10), 2- and 3-layer-ONIOM, interface openCOSMO-RS, QMMM,   
  Crystal-QMMM, RESP, rigid body optimization, SF, symmetry and pop. for TD-DFT, various functionals, SOLVATOR                                   
                                                                         
[Other institutions]                                                     
  V. Asgeirsson          : NEB                                           
  Christoph Bannwarth    : sTDA-DFT, sTD-DFT, PBEh-3c, B97-3c, D3        
  Giovanni Bistoni       : ETS/NOCV, ADLD/ADEX, COVALED                  
  Martin Brehm           : Molecular dynamics                            
  Ronald Cardenas        : ETS/NOCV                                      
  Martina Colucci        : COVALED                                       
  Sebastian Ehlert       : rSCAN, r2SCAN, r2SCAN-3c, D4, dhf basis sets  
  Marvin Friede          : D4 for Fr, Ra, Ac-Lr                          
  Lars Goerigk           : TD-DFT with DH, B97 family of functionals     
  Stefan Grimme          : VdW corrections, initial TS optimization, DFT functionals, gCP, sTDA/sTD-DF 
  Waldemar Hujo          : DFT-NL                                        
  H. Jonsson             : NEB                                           
  Holger Kruse           : gCP                                           
  Marcel Mueller         : wB97X-3c, vDZP basis set                      
  Hagen Neugebauer       : wr2SCAN, Native XTB                           
  Gianluca Regni         : ADLD/ADEX                                     
  Tobias Risthaus        : pre 6.0 range-separated hybrid DFT and stability analysis
  Lukas Wittmann         : regularized MP2, r2SCAN double-hybrids, wr2SCAN        
                                                                         
We gratefully acknowledge several colleagues who have allowed us to      
interface, adapt or use parts of their codes:                            
  Ed Valeev, F. Pavosevic, A. Kumar             : LibInt (2-el integral package), F12 methods 
  Garnet Chan, S. Sharma, J. Yang, R. Olivares  : DMRG                   
  Ulf Ekstrom                                   : XCFun DFT Library      
  Mihaly Kallay                                 : mrcc  (arbitrary order and MRCC methods)
  Frank Weinhold                                : gennbo (NPA and NBO analysis)           
  Simon Mueller                                 : openCOSMO-RS                            
  Christopher J. Cramer and Donald G. Truhlar   : smd solvation model                     
  S Lehtola, MJT Oliveira, MAL Marques          : LibXC Library                           
  Liviu Ungur et al                             : ANISO software                          


 Your calculation uses the libint2 library for the computation of 2-el integrals
 For citations please refer to: http://libint.valeyev.net

 Your ORCA version has been built with support for libXC version: 7.0.0
 For citations please refer to: https://libxc.gitlab.io

 This ORCA versions uses:
   CBLAS   interface :  Fast vector & matrix operations
   LAPACKE interface :  Fast linear algebra routines
   SCALAPACK package :  Parallel linear algebra routines
   Shared memory     :  Shared parallel matrices
   BLAS/LAPACK       :  OpenBLAS 0.3.29  USE64BITINT DYNAMIC_ARCH NO_AFFINITY SkylakeX SINGLE_THREADED
        Core in use  :  SkylakeX
   Copyright (c) 2011-2014, The OpenBLAS Project


  ***********************************
  * Starting time: Wed Aug  6 11:44:05 2025
  * Host name:     csed-0010
  * Process ID:    800795
  * Working dir.:  /gpfs/fs1/home/copan/proj/cyclopentene-oh-addition-project/calc/cyC5e1+OH_cyC5y1o2/run-neb10
  ***********************************



***************************************
The coordinates will be read from file: reactant.xyz
***************************************


Your calculation utilizes the atom-pairwise dispersion correction
based on EEQ partial charges (D4)


Your calculation utilizes a Nudged-Elastic-Band implementation
by V. Ásgeirsson, C. Riplinger & H. Jónsson
Please cite in your paper:
Ásgeirsson, V.; Birgisson, B. O.; Bjornsson, R.; Becker, U.; Neese, F.; Riplinger, R.;
Jónsson H. J. Chem. Theory Comput. 2021, 17, 4929-4945
   

================================================================================

cite the ECPs for C  [vDZP-ECP], O  [vDZP-ECP] as follows:
   B-Ne (ecp-2-mwb), Al-Ar (ecp-10-mwb), Ga-Kr (ecp-28-mwb), Y-Cd (ecp-28-mwb), In-Xe (ecp-46-mwb):
     A. Bergner, M. Dolg, W. Küchle, H. Stoll, and H. Preuß, Mol. Phys. 80, 1431 (1993)., T. Leininger, A. Berning, A. Nicklass, H. Stoll, H.-J. Werner, and H.-J.Flad, Chem. Phys. 217, 19 (1997).
   Na-Mg, K-Ca, Rb-Sr, Cs-Ba (CRENBL):
     L. Fernandez Pacios and P. A. Christiansen, J. Chem. Phys. 82, 2664 (1985)., M. M. Hurley, L. F. Pacios, P. A. Christiansen, R. B. Ross, and W. C. Ermler, J. Chem. Phys. 84, 6840 (1986)., L. A. LaJohn, P. A. Christiansen, R. B. Ross, T. Atashroo, and W. C. Ermler, J. Chem. Phys. 87, 2812 (1987)., R. B. Ross, J. M. Powers, T. Atashroo, W. C. Ermler, L. A. LaJohn, and P. A. Christiansen, J. Chem. Phys. 93, 6654 (1990). 
   Sc-Zn (ecp-10-mdf):
     M. Dolg, U. Wedig, H. Stoll, and H. Preuss, J. Chem. Phys. 86, 866 (1986). 
   Y-Cd (ecp-28-mwb), Hf-Hg (ecp-60-mwb):
     D. Andrae, U. Häußermann, M. Dolg, H. Stoll, and H. Preuß, Theor. Chim. Acta 77, 123 (1990). 
   La (ecp-46-mwb):
     M. Dolg, H. Stoll, and H. Preuss, J. Chem. Phys. 90, 1730 (1989)., M. Dolg, H. Stoll, and H. Preuss, Theor. Chim. Acta 85, 441 (1993).
   Ce-Lu (SBKJC-ecp):
     T. R. Cundari and W. J. Stevens, J. Chem. Phys. 98, 5555 (1993).
   Tl-Rn (ecp-78-mwb):
     W. Küchle, M. Dolg, H. Stoll, and H. Preuss, Mol. Phys. 74, 1245 (1991).

ECP parameters for C  [vDZP-ECP], O  [vDZP-ECP] have been obtained from:
MM, AH, SG, J. Chem. Phys. 158, 014103 (2023), 10.1063/5.0133026

----- Orbital basis set information -----
Your calculation utilizes the basis: vDZP
   Marcel Mueller, Andreas Hansen, Stefan Grimme 
   J. Chem. Phys. 158, 014103 (2023). DOI: 10.1063/5.0133026

----- AuxJ basis set information -----
Your calculation utilizes the auxiliary basis: def2/J
   H-Rn: F. Weigend, Phys. Chem. Chem. Phys. 8, 1057 (2006).
   Fr-Lr: K. Eichkorn, F. Weigend, O. Treutler, R. Ahlrichs; Theor. Chem. Acc. 97, 119 (1997).

================================================================================
                                        WARNINGS
                       Please study these warnings very carefully!
================================================================================

WARNING: Frozen-Core approximation turned on, but there are no core electrons.
  ===> : Turning off frozen-core approximation


WARNING: your system is open-shell and RHF/RKS was chosen
  ===> : WILL SWITCH to UHF/UKS


WARNING: Geometry Optimization
  ===> : Switching off AutoStart
         For restart on a previous wavefunction, please use MOREAD

================================================================================
                                       INPUT FILE
================================================================================
NAME = neb.inp
|  1> ! PAL8
|  2> ! wB97X-3c
|  3> ! TIGHT-NEB-TS  # NEB calculation with tighter convergence criteria plus 
|  4>                 # subsequent TS optimization
|  5> ! FREQ
|  6> 
|  7> %NEB 
|  8>  NEB_END_XYZFILE "product.xyz" 
|  9> END
| 10> 
| 11> * xyzfile 0 2 reactant.xyz
| 12> 
| 13>                          ****END OF INPUT****
================================================================================


--------------------------------------------------------------------------------
                        Nudged Elastic Band Calculation
--------------------------------------------------------------------------------

Number of images (incl. end points)     ....  10
Number of intermediate images           ....  8
Number of optimized images              ....  8
Optimization of end points before NEB   ....  NO
Use existing gbw files for MO input     ....  NO
Number of atoms                         ....  15
Number of (active) degrees of freedom   ....  45
Constrained atoms                       ....  None

-----------------------------------------
  REACTANT (ANGSTROEM)
-----------------------------------------
C      1.887066     1.416024    -0.006601 
C      0.664001     2.293339     0.289395 
C     -0.556688     1.414176    -0.012521 
C      0.002142     0.022015     0.058376 
C      1.329534     0.024011     0.059293 
H      2.294372     1.602636    -1.003766 
H      2.700328     1.580894     0.699910 
H      0.664002     3.220892    -0.279651 
H      0.664018     2.563154     1.345612 
H     -1.377291     1.581298     0.685364 
H     -0.956581     1.599011    -1.013068 
H     -0.613643    -0.868027     0.047792 
H      1.948904    -0.863637     0.052059 
O      0.981952    -0.056119     3.342804 
H      0.726682    -0.072575     2.400159 

-----------------------------------------
  PRODUCT (ANGSTROEM)
-----------------------------------------
C     -0.117157     1.192633    -0.171433 
C     -0.821218     0.364622     0.898234 
C     -0.936311    -1.022914     0.263089 
C      0.248836    -1.095945    -0.631314 
C      0.893187     0.235129    -0.802055 
H     -0.837908     1.496890    -0.933130 
H      0.368375     2.089228     0.208862 
H     -1.783037     0.780092     1.194257 
H     -0.205263     0.310034     1.798142 
H     -0.974381    -1.832975     0.994120 
H     -1.863088    -1.100524    -0.320314 
H      0.609168    -1.996815    -1.107748 
H      1.087970     0.481662    -1.846041 
O      2.179259     0.297047    -0.182346 
H      2.151571    -0.198164     0.637677 



----------------------
NEB settings
----------------------
Method type                             ....  climbing image
Threshold for climbing image            ....  2.00e-02 Eh/Bohr 
Free endpoints                          ....  off 
Tangent type                            ....  improved 
Number of intermediate images           ....  8 
Number of images free to move           ....  8 
Spring type for image distribution      ....  distance between adjacent images 
Spring constant                         ....  energy weighted (0.0100 -to- 0.1000) Eh/Bohr^2 
Spring force perp. to the path          ....  none 
Generation of initial path              ....  image dependent pair potential 
Initial path via TS guess               ....  off 

Minimization of RMSD: Rotation          ....  always 
Minimization of RMSD: Translation type  ....  centroid 
Center fixed to origin                  ....  true 
Remove external force                   ....  true 

Reparametrization of the path           ....  off 
Convergence thresholds:
Convergence monitored for               ....  all images
Scaling factor                          ....  10.00

Convergence parameters for regular images:
               Max(|Fp|)                ....  5.00e-03 Eh/Bohr
               RMS(Fp)                  ....  2.50e-03 Eh/Bohr

Convergence parameters for climbing image:
               Max(|F|)                 ....  5.00e-04 Eh/Bohr
               RMS(F)                   ....  2.50e-04 Eh/Bohr
Optimization method:
Method                                  ....  L-BFGS
Max. iterations                         ....  500 
Step size                               ....  1.00 
Maximum allowed step size               ....  0.10 Bohr

LBFGS parameters: 
               Memory                   ....  20 
               Initial step size        ....  0.0010 
               Estimate curvature       ....  YES 
               Reset on maxmove         ....  YES 
               Reparam. on reset        ....  NO 
Generation of  the initial path:
Two fragments detected in initial structure. Preparing initial structure... Done
Minimize RMSD between reactant and product configurations     .... done
       RMSD before minimization         ....  2.8884 Bohr
       RMSD after minimization          ....  0.5012 Bohr
Performing linear interpolation         ....  done
Generating initial path 1 out of 129 -> Success!
Displacement along initial path:              3.6153 Bohr
Writing initial trajectory to file      ....  neb_initial_path_trj.xyz



----------------------
NEB OPTIMIZATION      
----------------------

Following output files will be written:
Energy profile during opt. written to    ....  neb.interp
Optimization log-file                    ....  neb.NEB.log
Current trajectory will be written to    ....  neb_MEP_trj.xyz
       and to allxyz file                ....  neb_MEP.allxyz
       and individual images to xyz file ....  neb_im{NIm}.xyz
Trajectory history will be written to    ....  neb_MEP_ALL_trj.xyz
Converged CI will be written to          ....  neb_NEB-CI_converged.xyz
Converged TS will be written to          ....  neb_NEB-TS_converged.xyz

Single point energy and gradient calculation of reactant and
product configurations (have to be performed only once)


           ************************************************************
           *        Program running with 8 parallel MPI-processes     *
           *              working on a common directory               *
           ************************************************************

------------------------------------------------------------------------------
                         ORCA PROPERTY INTEGRAL CALCULATIONS
------------------------------------------------------------------------------

GBWName                                   ... neb_im0.gbw
Number of atoms                           ...     15
Number of basis functions                 ...    123
Max core memory                           ...   4096 MB

Dipole integrals                          ... YES
Quadrupole integrals                      ...  NO
Linear momentum integrals                 ...  NO
Angular momentum integrals                ...  NO
Higher moments length integrals           ...  NO
Higher moments velocity integrals         ...  NO
Kinetic energy integrals                  ...  NO
GIAO right hand sides                     ...  NO
GIAO dipole derivative integrals          ...  NO
SOC integrals                             ...  NO
EPR diamagnetic integrals (GIAO)          ...  NO
EPR gauge integrals                       ...  NO
Field gradient integrals                  ...  NO (   0 nuclei)
Spin-dipole/Fermi contact integrals       ...  NO (   0 nuclei)
Contact density integrals                 ...  NO (   0 nuclei)
Nucleus-orbit integrals                   ...  NO (   0 nuclei)
Geometric perturbations                   ... YES (  15 nuclei)

Choice of electric origin   ... Center of mass
Position of electric origin ... (  0.0660, -0.3574,  0.5167) 
Choice of magnetic origin   ... GIAO
Position of magnetic origin ... (  0.0000,  0.0000,  0.0000) 

Calculating integrals                     ... Electric Dipole (Length)     done (  0.0 sec)
Calculating integrals                     ... Geometrical perturbation right hand sides

-----------------------
GEOMETRIC PERTURBATIONS (15 nuclei)
-----------------------

MaxCore                            ...   4096 MB
Number of batches                  ...      1

BATCH   0: Atoms    0 -   14 ( 45 perturbations)
   => H(core) and overlap derivative integrals     ... done (     0.0 sec)
   => Making and storing internal U-coefficients   ... done (     0.0 sec)
   => RI-J derivative integrals                    ... done (     1.0 sec)
   => RI-J response operators                      ... done (     0.1 sec)
   => Chain of spheres derivative integrals        ... done (     3.3 sec)
   => Chain of spheres response operator           ... done (     2.8 sec)
   => ECP derivative integrals                     ... done (     2.0 sec)
   => XC derivative integrals                      ... done (    10.3 sec)
   => XC response operators                        ... done (     2.6 sec)
   => Completing and storing right hand sides      ... done (     0.0 sec)
   => Total time for right hand sides =  22.4 sec

  geometrical perturbations done ( 22.4 sec)

Property integrals calculated in  22.4 sec

Maximum memory used throughout the entire PROPINT-calculation: 113.9 MB


           ************************************************************
           *        Program running with 8 parallel MPI-processes     *
           *              working on a common directory               *
           ************************************************************

------------------------------------------------------------------------------
                         ORCA PROPERTY INTEGRAL CALCULATIONS
------------------------------------------------------------------------------

GBWName                                   ... neb_im9.gbw
Number of atoms                           ...     15
Number of basis functions                 ...    123
Max core memory                           ...   4096 MB

Dipole integrals                          ... YES
Quadrupole integrals                      ...  NO
Linear momentum integrals                 ...  NO
Angular momentum integrals                ...  NO
Higher moments length integrals           ...  NO
Higher moments velocity integrals         ...  NO
Kinetic energy integrals                  ...  NO
GIAO right hand sides                     ...  NO
GIAO dipole derivative integrals          ...  NO
SOC integrals                             ...  NO
EPR diamagnetic integrals (GIAO)          ...  NO
EPR gauge integrals                       ...  NO
Field gradient integrals                  ...  NO (   0 nuclei)
Spin-dipole/Fermi contact integrals       ...  NO (   0 nuclei)
Contact density integrals                 ...  NO (   0 nuclei)
Nucleus-orbit integrals                   ...  NO (   0 nuclei)
Geometric perturbations                   ... YES (  15 nuclei)

Choice of electric origin   ... Center of mass
Position of electric origin ... (  0.1842, -0.4362,  0.3211) 
Choice of magnetic origin   ... GIAO
Position of magnetic origin ... (  0.0000,  0.0000,  0.0000) 

Calculating integrals                     ... Electric Dipole (Length)     done (  0.0 sec)
Calculating integrals                     ... Geometrical perturbation right hand sides

-----------------------
GEOMETRIC PERTURBATIONS (15 nuclei)
-----------------------

MaxCore                            ...   4096 MB
Number of batches                  ...      1

BATCH   0: Atoms    0 -   14 ( 45 perturbations)
   => H(core) and overlap derivative integrals     ... done (     0.0 sec)
   => Making and storing internal U-coefficients   ... done (     0.0 sec)
   => RI-J derivative integrals                    ... done (     0.6 sec)
   => RI-J response operators                      ... done (     0.1 sec)
   => Chain of spheres derivative integrals        ... done (     3.3 sec)
   => Chain of spheres response operator           ... done (     2.8 sec)
   => ECP derivative integrals                     ... done (     2.0 sec)
   => XC derivative integrals                      ... done (    11.2 sec)
   => XC response operators                        ... done (     2.9 sec)
   => Completing and storing right hand sides      ... done (     0.0 sec)
   => Total time for right hand sides =  23.2 sec

  geometrical perturbations done ( 23.2 sec)

Property integrals calculated in  23.2 sec

Maximum memory used throughout the entire PROPINT-calculation: 114.6 MB
Properties of fixed NEB end points:
               Reactant:
                         E               ....    -49.866128 Eh
                         RMS(F)          ....      0.000171 Eh/Bohr
                         MAX(|F|)        ....      0.000597 Eh/Bohr
               Product:
                         E               ....    -49.914627 Eh
                         RMS(F)          ....      0.000034 Eh/Bohr
                         MAX(|F|)        ....      0.000077 Eh/Bohr



Starting iterations:

Optim.  Iteration  HEI  E(HEI)-E(0)  max(|Fp|)   RMS(Fp)    dS
Switch-on CI threshold               0.020000 
   LBFGS     0      5    0.017259    0.054115   0.008859  3.6153       
   LBFGS     1      5    0.011536    0.060043   0.008485  3.6515       
   LBFGS     2      5    0.009095    0.027245   0.004864  3.6733       
   LBFGS     3      5    0.005769    0.014633   0.003271  3.7879       

Image  5 will be converted to a climbing image in the next iteration (max(|Fp|) < 0.0200) 

Optim.  Iteration  CI   E(CI)-E(0)   max(|Fp|)   RMS(Fp)    dS     max(|FCI|)   RMS(FCI)
Convergence thresholds               0.005000   0.002500            0.000500    0.000250 
   LBFGS     4      5    0.004802    0.027346   0.004492  3.8328    0.012646    0.003921       
   LBFGS     5      5    0.004187    0.023725   0.003144  3.8941    0.010703    0.003942       
   LBFGS     6      5    0.003203    0.007939   0.002024  4.0179    0.007960    0.002980       
   LBFGS     7      5    0.002791    0.013022   0.002168  4.0387    0.006809    0.002273       
   LBFGS     8      5    0.002613    0.006124   0.001546  4.0592    0.005452    0.002366       
   LBFGS     9      5    0.002201    0.014861   0.001966  4.1115    0.004931    0.002054       
   LBFGS    10      3    0.002137    0.012293   0.001488  4.2320    0.013523    0.003009       
   LBFGS    11      3    0.001887    0.017006   0.002273  4.4043    0.004639    0.001523       
   LBFGS    12      3    0.001833    0.008489   0.001529  4.3854    0.002659    0.000922       
   LBFGS    13      3    0.001813    0.004638   0.000783  4.3839    0.002106    0.000569       
   LBFGS    14      3    0.001785    0.005636   0.000858  4.3811    0.001394    0.000552       
   LBFGS    15      3    0.001745    0.005357   0.000891  4.3826    0.001940    0.000633       
   LBFGS    16      3    0.001701    0.009518   0.001585  4.3938    0.004700    0.001165       
   LBFGS    17      3    0.001645    0.002871   0.000570  4.4051    0.001558    0.000501       
   LBFGS    18      3    0.001615    0.003313   0.000574  4.4154    0.001422    0.000345       
   LBFGS    19      3    0.001567    0.005970   0.000960  4.4456    0.001750    0.000477       
   LBFGS    20      3    0.001521    0.015758   0.001725  4.4994    0.004555    0.001131       
   LBFGS    21      3    0.001511    0.008537   0.001216  4.4925    0.004664    0.001055       
   LBFGS    22      3    0.001492    0.005635   0.000598  4.4889    0.000935    0.000365       
   LBFGS    23      3    0.001484    0.002638   0.000427  4.4871    0.001100    0.000346       
   LBFGS    24      3    0.001473    0.002933   0.000465  4.4892    0.001603    0.000421       
   LBFGS    25      3    0.001450    0.009329   0.001109  4.4983    0.001019    0.000288       
   LBFGS    26      3    0.001439    0.007848   0.000865  4.5105    0.001894    0.000459       
   LBFGS    27      3    0.001428    0.001722   0.000337  4.5164    0.000766    0.000225       
   LBFGS    28      3    0.001418    0.002338   0.000335  4.5227    0.000742    0.000212       
   LBFGS    29      3    0.001405    0.002843   0.000343  4.5371    0.001779    0.000432       
   LBFGS    30      3    0.001386    0.005644   0.000656  4.5598    0.003580    0.000804       
   LBFGS    31      3    0.001368    0.002664   0.000411  4.5714    0.001578    0.000384       
   LBFGS    32      3    0.001355    0.001728   0.000341  4.5760    0.001009    0.000269       
   LBFGS    33      3    0.001332    0.002331   0.000444  4.5937    0.001290    0.000319       
   LBFGS    34      3    0.001295    0.003912   0.000672  4.6470    0.001660    0.000405       
   LBFGS    35      3    0.001296    0.007056   0.000897  4.6363    0.003323    0.000746       
   LBFGS    36      3    0.001290    0.002726   0.000446  4.6321    0.001086    0.000293       
   LBFGS    37      3    0.001287    0.001822   0.000294  4.6285    0.000706    0.000206       
   LBFGS    38      3    0.001286    0.002109   0.000331  4.6250    0.001138    0.000283       
   LBFGS    39      3    0.001278    0.005413   0.000476  4.6200    0.000341    0.000114       
   LBFGS    40      3    0.001285    0.006902   0.000750  4.6198    0.002984    0.000675       
   LBFGS    41      3    0.001272    0.001617   0.000175  4.6210    0.000400    0.000104       

                                .--------------------.
          ----------------------| CI-NEB convergence |-------------------------
          Item                value                   Tolerance       Converged
          ---------------------------------------------------------------------
          RMS(Fp)             0.0001754069            0.0025000000      YES
          MAX(|Fp|)           0.0016167198            0.0050000000      YES
          RMS(FCI)            0.0001036033            0.0002500000      YES
          MAX(|FCI|)          0.0004003758            0.0005000000      YES
          ---------------------------------------------------------------------

The elastic band and climbing image have converged successfully to a MEP in 41 iterations!


                    *********************H U R R A Y*********************
                    ***        THE NEB OPTIMIZATION HAS CONVERGED     ***
                    *****************************************************



---------------------------------------------------------------
                         PATH SUMMARY              
---------------------------------------------------------------
All forces in Eh/Bohr.

Image Dist.(Ang.)    E(Eh)   dE(kcal/mol)  max(|Fp|)  RMS(Fp)
  0     0.000     -49.86613      0.00       0.00060   0.00016
  1     0.403     -49.86563      0.31       0.00046   0.00013
  2     0.621     -49.86506      0.67       0.00032   0.00009
  3     0.805     -49.86486      0.80       0.00041   0.00010 <= CI
  4     0.889     -49.86492      0.76       0.00043   0.00010
  5     0.973     -49.86510      0.64       0.00049   0.00011
  6     1.068     -49.86545      0.43       0.00047   0.00011
  7     1.202     -49.86604      0.05       0.00091   0.00025
  8     1.645     -49.87261     -4.07       0.00162   0.00040
  9     2.445     -49.91463    -30.43       0.00008   0.00003

Straight line distance between images along the path:
        D( 0- 1) =   0.4032 Ang.
        D( 1- 2) =   0.2175 Ang.
        D( 2- 3) =   0.1841 Ang.
        D( 3- 4) =   0.0839 Ang.
        D( 4- 5) =   0.0846 Ang.
        D( 5- 6) =   0.0949 Ang.
        D( 6- 7) =   0.1335 Ang.
        D( 7- 8) =   0.4438 Ang.
        D( 8- 9) =   0.7999 Ang.

---------------------------------------------------------------
               INFORMATION ABOUT SADDLE POINT     
---------------------------------------------------------------

Climbing image                            ....  3 
Energy                                    ....  -49.86485543 Eh
Max. abs. force                           ....  4.0038e-04 Eh/Bohr

-----------------------------------------
  SADDLE POINT (ANGSTROEM)
-----------------------------------------
C      1.178356     0.382394    -0.399139 
C     -0.047539     1.270602    -0.158508 
C     -1.256960     0.398504    -0.516729 
C     -0.716561    -0.996223    -0.376835 
C      0.610045    -1.003891    -0.314239 
H      1.607041     0.543859    -1.392135 
H      1.974011     0.558310     0.323495 
H     -0.015285     2.200599    -0.722866 
H     -0.092936     1.535913     0.898469 
H     -2.120906     0.592653     0.119751 
H     -1.586574     0.564889    -1.546180 
H     -1.340358    -1.880796    -0.391327 
H      1.222690    -1.893956    -0.262247 
O      0.731119    -1.226631     2.556847 
H     -0.146145    -1.046227     2.181643 

-----------------------------------------
  FORCES (Eh/Bohr)
-----------------------------------------
C     -0.000011    -0.000002    -0.000016 
C      0.000022     0.000027    -0.000091 
C      0.000032     0.000017    -0.000036 
C     -0.000230    -0.000009    -0.000031 
C      0.000240    -0.000027    -0.000045 
H      0.000089    -0.000014     0.000053 
H     -0.000049     0.000003     0.000037 
H      0.000019     0.000036    -0.000059 
H      0.000010    -0.000048    -0.000087 
H      0.000071    -0.000045     0.000033 
H     -0.000136     0.000051     0.000026 
H      0.000035     0.000093     0.000091 
H     -0.000028     0.000080    -0.000027 
O     -0.000033     0.000237    -0.000067 
H     -0.000031    -0.000400     0.000217 

-----------------------------------------
  UNIT TANGENT
-----------------------------------------
C      0.018604     0.008244     0.011156 
C      0.011934    -0.001692     0.007771 
C      0.021571    -0.017844     0.016546 
C      0.033495    -0.009408     0.042308 
C      0.038888     0.004457     0.053827 
H     -0.001136    -0.004889     0.000171 
H      0.022424     0.024457     0.000172 
H     -0.001364    -0.005004     0.001155 
H      0.012848     0.003006     0.006324 
H      0.013654    -0.015994     0.006588 
H      0.023223    -0.031746     0.012591 
H      0.042146    -0.015206     0.053500 
H      0.044503     0.011829     0.056796 
O      0.110986    -0.085786    -0.746536 
H     -0.391775     0.135575     0.477631 
 => Unit tangent is an approximation to the TS mode at the saddle point

Next a TS optimization is performed on the CI from the NEB run.

         *************************************************************
         *                       TS OPTIMIZATION                     *
         *************************************************************


Following output files will be written:
Converged TS will be written to          ....  neb_NEB-TS_converged.xyz
                                         ....  neb.xyz
Current trajectory will be written to    ....  neb_trj.xyz
Initial Hessian will be stored in        ....  neb.appr.hess
 (Almloef) Geometry optimization settings:
Update method            Update   .... Bofill
Choice of coordinates    CoordSys .... (2022) Redundant Internals
Initial Hessian          InHess   .... Read
Max. no of cycles        MaxIter  .... 50

Convergence Tolerances:
Energy Change            TolE     ....  5.0000e-06 Eh
Max. Gradient            TolMAXG  ....  3.0000e-04 Eh/bohr
RMS Gradient             TolRMSG  ....  1.0000e-04 Eh/bohr
Max. Displacement        TolMAXD  ....  4.0000e-03 bohr
RMS Displacement         TolRMSD  ....  2.0000e-03 bohr
Strict Convergence                .... False

------------------------------------------------------------------------------
                        ORCA OPTIMIZATION COORDINATE SETUP
------------------------------------------------------------------------------

The optimization will be done in redundant internal coordinates (2022)
Making redundant internal coordinates   ...  (2022 redundants) done
Following TS mode number                ...     0
TS-active-atoms for coordinate setup... 13 14 
Evaluating the initial hessian          ... (Reading Exact Hessian)...  
InHessName: neb.appr.hess	The file <neb.appr.hess> is opened as a .hess file
done
done
Evaluating the coordinates              ...  done
Calculating the B-matrix                .... done
Calculating the G-matrix                .... done
The number of degrees of freedom        ....  112

    -----------------------------------------------------------------
                    Redundant Internal Coordinates


    -----------------------------------------------------------------
         Definition                    Initial Value    d2E/dq (diagonal element)
    -----------------------------------------------------------------
      1. B(C   1,C   0)                  1.5329         0.293778   
      2. B(C   2,C   1)                  1.5335         0.298502   
      3. B(C   3,C   2)                  1.5023         0.271419   
      4. B(C   4,C   3)                  1.3281         0.490644   
      5. B(C   4,C   0)                  1.5007         0.257970   
      6. B(H   5,C   0)                  1.0936         0.355416   
      7. B(H   6,C   0)                  1.0891         0.341801   
      8. B(H   7,C   1)                  1.0883         0.362334   
      9. B(H   8,C   1)                  1.0907         0.344964   
     10. B(H   9,C   2)                  1.0905         0.350034   
     11. B(H  10,C   2)                  1.0937         0.355309   
     12. B(H  11,C   3)                  1.0825         0.304798   
     13. B(H  12,C   4)                  1.0818         0.305341   
     14. B(O  13,H   6)                  3.1175         0.020105   
     15. B(O  13,H  12)                  2.9384         0.006119   
     16. B(O  13,C   4)                  2.8823         0.011852   
     17. B(O  13,H   8)                  3.3258         0.028546   
     18. B(O  13,C   3)                  3.2795         0.039911   
     19. B(H  14,C   4)                  2.6083         0.011947   
     20. B(H  14,C   1)                  3.2945         0.023226   
     21. B(H  14,O  13)                  0.9710         0.243207   
     22. B(H  14,H   9)                  3.2920         0.029382   
     23. B(H  14,C   2)                  3.2561         0.020347   
     24. B(H  14,H   6)                  3.2438         0.022699   
     25. B(H  14,C   0)                  3.2335         0.019829   
     26. B(H  14,H  11)                  2.9568         0.030271   
     27. B(H  14,H  12)                  2.9266         0.024322   
     28. B(H  14,H   8)                  2.8839         0.024942   
     29. B(H  14,C   3)                  2.6218         0.018745   
     30. A(C   1,C   0,C   4)          102.9166         0.043646   
     31. A(C   4,C   0,H   6)          112.8508         0.042830   
     32. A(H   5,C   0,H   6)          106.9928         0.027718   
     33. A(C   1,C   0,H   5)          111.7463         0.039444   
     34. A(C   4,C   0,H   5)          109.6471         0.045193   
     35. A(C   1,C   0,H   6)          112.7368         0.066546   
     36. A(C   2,C   1,H   8)          109.3831         0.059436   
     37. A(C   2,C   1,H   7)          112.8432         0.052998   
     38. A(C   0,C   1,C   2)          105.3394         0.055468   
     39. A(C   0,C   1,H   7)          112.9575         0.055866   
     40. A(H   7,C   1,H   8)          107.2112         0.027174   
     41. A(C   0,C   1,H   8)          109.0481         0.053273   
     42. A(H   9,C   2,H  10)          106.4711         0.035605   
     43. A(C   1,C   2,H  10)          111.7809         0.056296   
     44. A(C   3,C   2,H   9)          113.3235         0.035867   
     45. A(C   1,C   2,H   9)          112.7824         0.051378   
     46. A(C   1,C   2,C   3)          102.8578         0.037154   
     47. A(C   3,C   2,H  10)          109.7131         0.062585   
     48. A(C   4,C   3,O  13)           61.0859         0.005009   
     49. A(C   2,C   3,O  13)          107.8975         0.013346   
     50. A(C   4,C   3,H  11)          124.8563         0.049129   
     51. A(C   2,C   3,H  11)          123.3750         0.071801   
     52. A(H  11,C   3,O  13)          102.0603         0.013722   
     53. A(C   2,C   3,C   4)          111.6577         0.039392   
     54. A(H  12,C   4,O  13)           82.2270         0.004948   
     55. A(C   3,C   4,O  13)           95.1265         0.011978   
     56. A(C   0,C   4,O  13)           96.4212         0.009210   
     57. A(C   3,C   4,H  12)          124.9392         0.044699   
     58. A(C   0,C   4,H  12)          123.2514         0.069580   
     59. A(C   0,C   4,C   3)          111.7329         0.036765   
     60. A(C   4,O  13,H  14)           64.0744         0.002999   
     61. A(C   3,O  13,C   4)           23.7876         0.014489   
     62. A(C   3,O  13,H  14)           40.7559         0.009113   
     63. D(H   8,C   1,C   0,H   5)   -147.3738         0.039584   
     64. D(H   8,C   1,C   0,C   4)     95.0542         0.038070   
     65. D(H   7,C   1,C   0,H   6)     92.2699         0.033730   
     66. D(C   2,C   1,C   0,H   5)     95.3173         0.032718   
     67. D(H   7,C   1,C   0,C   4)   -145.8536         0.031621   
     68. D(C   2,C   1,C   0,C   4)    -22.2547         0.011162   
     69. D(C   2,C   1,C   0,H   6)   -144.1312         0.025939   
     70. D(H   7,C   1,C   0,H   5)    -28.2816         0.034923   
     71. D(H   9,C   2,C   1,H   8)     27.6502         0.036489   
     72. D(H   9,C   2,C   1,H   7)    -91.5967         0.032311   
     73. D(H  10,C   2,C   1,C   0)    -95.3349         0.042484   
     74. D(H   9,C   2,C   1,C   0)    144.7318         0.023934   
     75. D(C   3,C   2,C   1,H   7)    145.9686         0.032471   
     76. D(C   3,C   2,C   1,C   0)     22.2972         0.010264   
     77. D(C   3,C   2,C   1,H   8)    -94.7844         0.031266   
     78. D(H  10,C   2,C   1,H   7)     28.3365         0.039923   
     79. D(O  13,C   3,C   2,H   9)    -71.2041         0.025884   
     80. D(H  11,C   3,C   2,H  10)    -71.6483         0.032569   
     81. D(H  11,C   3,C   2,H   9)     47.1985         0.020974   
     82. D(H  11,C   3,C   2,C   1)    169.2682         0.010445   
     83. D(C   4,C   3,C   2,H  10)    104.6850         0.037104   
     84. D(O  13,C   3,C   2,C   1)     50.8655         0.014628   
     85. D(C   4,C   3,C   2,H   9)   -136.4681         0.023321   
     86. D(C   4,C   3,C   2,C   1)    -14.3984         0.010024   
     87. D(H  12,C   4,C   0,H   6)    -46.9926         0.031793   
     88. D(H  12,C   4,C   0,H   5)     72.1636         0.021698   
     89. D(H  12,C   4,C   0,C   1)   -168.7920         0.010196   
     90. D(C   3,C   4,C   0,H   6)    136.0477         0.037517   
     91. D(C   3,C   4,C   0,H   5)   -104.7961         0.025838   
     92. D(O  13,C   4,C   0,C   1)    -83.8956         0.016503   
     93. D(C   3,C   4,C   0,C   1)     14.2483         0.012212   
     94. D(O  13,C   4,C   3,H  11)    -84.6168         0.005366   
     95. D(H  12,C   4,C   3,O  13)     84.0897         0.005541   
     96. D(H  12,C   4,C   3,H  11)     -0.5271         0.004725   
     97. D(H  12,C   4,C   3,C   2)   -176.7956         0.008655   
     98. D(C   0,C   4,C   3,O  13)    -99.0119         0.008683   
     99. D(C   0,C   4,C   3,H  11)    176.3713         0.009538   
    100. D(O  13,C   4,C   3,C   2)     99.1147         0.008241   
    101. D(C   0,C   4,C   3,C   2)      0.1028         0.007786   
    102. D(O  13,C   4,C   0,H   5)    157.0599         0.026971   
    103. D(C   3,O  13,C   4,H  12)   -124.6173         0.045366   
    104. D(C   3,O  13,C   4,C   0)    112.5948         0.038178   
    105. D(H  14,O  13,C   4,H  12)   -134.4421         0.035566   
    106. D(H  14,O  13,C   4,C   3)     -9.8248         0.005361   
    107. D(H  14,O  13,C   4,C   0)    102.7701         0.024382   
    108. D(C   4,O  13,C   3,H  11)    123.3417         0.042090   
    109. D(C   4,O  13,C   3,C   2)   -105.3479         0.037625   
    110. D(H  14,O  13,C   3,H  11)    -70.2541         0.030540   
    111. D(H  14,O  13,C   3,C   4)    166.4042         0.010386   
    112. D(H  14,O  13,C   3,C   2)     61.0563         0.021025   
    -----------------------------------------------------------------

Number of atoms                         .... 15
Number of degrees of freedom            .... 112


         *************************************************************
         *                GEOMETRY OPTIMIZATION CYCLE   1            *
         *************************************************************


           ************************************************************
           *        Program running with 8 parallel MPI-processes     *
           *              working on a common directory               *
           ************************************************************
------------------------------------------------------------------------------
                             ORCA STARTUP CALCULATIONS
                           -- RI-GTO INTEGRALS CHOSEN --
------------------------------------------------------------------------------
------------------------------------------------------------------------------
                   ___                                                        
                  /   \      - P O W E R E D   B Y -                         
                 /     \                                                     
                 |  |  |   _    _      __       _____    __    __             
                 |  |  |  | |  | |    /  \     |  _  \  |  |  /  |          
                  \  \/   | |  | |   /    \    | | | |  |  | /  /          
                 / \  \   | |__| |  /  /\  \   | |_| |  |  |/  /          
                |  |  |   |  __  | /  /__\  \  |    /   |      \           
                |  |  |   | |  | | |   __   |  |    \   |  |\   \          
                \     /   | |  | | |  |  |  |  | |\  \  |  | \   \       
                 \___/    |_|  |_| |__|  |__|  |_| \__\ |__|  \__/        
                                                                              
                      - O R C A' S   B I G   F R I E N D -                    
                                      &                                       
                       - I N T E G R A L  F E E D E R -                       
                                                                              
 v1 FN, 2020, v2 2021, v3 2022-2024                                           
------------------------------------------------------------------------------


----------------------
SHARK INTEGRAL PACKAGE
----------------------

Number of atoms                             ...     15
Number of basis functions                   ...    123
Number of shells                            ...     57
Maximum angular momentum                    ...      2
Integral batch strategy                     ... SHARK/LIBINT Hybrid
RI-J (if used) integral strategy            ... SPLIT-RIJ (Revised 2003 algorithm where possible)
Printlevel                                  ...      1
Contraction scheme used                     ... SEGMENTED contraction
Prescreening option                         ... SCHWARTZ
   Thresh                                   ... 2.500e-11
   Tcut                                     ... 2.500e-12
   Tpresel                                  ... 2.500e-12 
Coulomb Range Separation                    ... NOT USED
Exchange Range Separation                   ... Long Range
   Mu parameter                             ... 3.000e-01
   Scaling (regular/separated)              ... 1.670e-01 8.330e-01
Robust (split-)RI terms used:
  metric    (central integrals)             ... YES
  density   (r.h.s.  integrals)             ... YES
  potential (l.h.s.  integrals)             ... YES
Multipole approximations                    ... NOT USED
Finite Nucleus Model                        ... NOT USED
CABS basis                                  ... NOT available
Auxiliary Coulomb fitting basis             ... AVAILABLE
   # of basis functions in Aux-J            ...    393
   # of shells in Aux-J                     ...    135
   Maximum angular momentum in Aux-J        ...      4
Auxiliary J/K fitting basis                 ... NOT available
Auxiliary Correlation fitting basis         ... NOT available
Auxiliary 'external' fitting basis          ... NOT available

Checking pre-screening integrals            ... done (  0.0 sec) Dimension = 57
   => SHARK Basis and OBASIS are compatible. Storing Pre-screening
Shell pair information
Shell pair cut-off parameter TPreSel        ...   2.5e-12
Total number of shell pairs                 ...      1653
Shell pairs after pre-screening             ...      1653
Total number of primitive shell pairs       ...     15441
Primitive shell pairs kept                  ...     13774
          la=0 lb=0:    465 shell pairs
          la=1 lb=0:    630 shell pairs
          la=1 lb=1:    231 shell pairs
          la=2 lb=0:    180 shell pairs
          la=2 lb=1:    126 shell pairs
          la=2 lb=2:     21 shell pairs

Checking whether 4 symmetric matrices of dimension 123 fit in memory
:Max Core in MB      =   4096.00
 MB in use           =      7.18
 MB left             =   4088.82
 MB needed           =      0.23
 Data fit in memory  = YES
Calculating RI/J V-Matrix + Cholesky decomp.... done (  0.0 sec)
Calculating Nuclear repulsion               ... done (  0.0 sec) ENN=    126.708947647876 Eh

Diagonalization of the overlap matrix:
Smallest eigenvalue                        ... 1.417e-03
Time for diagonalization                   ...    0.002 sec
Threshold for overlap eigenvalues          ... 1.000e-07
Number of eigenvalues below threshold      ... 0
Time for construction of square roots      ...    0.001 sec
Total time needed                          ...    0.003 sec

-------------------
DFT GRID GENERATION
-------------------

General Integration Accuracy     IntAcc      ... 4.388
Radial Grid Type                 RadialGrid  ... OptM3 with GC (2021)
Angular Grid (max. ang.)         AngularGrid ... 4 (Lebedev-302)
Angular grid pruning method      GridPruning ... 4 (adaptive)
Weight generation scheme         WeightScheme... mBecke (2022)
Basis function cutoff            BFCut       ... 1.0000e-11
Integration weight cutoff        WCut        ... 1.0000e-14
Partially contracted basis set               ... off
Rotationally invariant grid construction     ... off
Angular grids for H and He will be reduced by one unit

Total number of grid points                  ...    65076
Total number of batches                      ...     1024
Average number of points per batch           ...       63
Average number of grid points per atom       ...     4338

--------------------
COSX GRID GENERATION
--------------------

GRIDX 1
-------
General Integration Accuracy     IntAcc      ... 3.816
Radial Grid Type                 RadialGrid  ... OptM3 with GC (2021)
Angular Grid (max. ang.)         AngularGrid ... 1 (Lebedev-50)
Angular grid pruning method      GridPruning ... 4 (adaptive)
Weight generation scheme         WeightScheme... mBecke (2022)
Basis function cutoff            BFCut       ... 1.0000e-11
Integration weight cutoff        WCut        ... 1.0000e-14
Partially contracted basis set               ... on
Rotationally invariant grid construction     ... off
Angular grids for H and He will be reduced by one unit

Total number of grid points                  ...     8372
Total number of batches                      ...       76
Average number of points per batch           ...      110
Average number of grid points per atom       ...      558
UseSFitting                                  ... on

GRIDX 2
-------
General Integration Accuracy     IntAcc      ... 4.020
Radial Grid Type                 RadialGrid  ... OptM3 with GC (2021)
Angular Grid (max. ang.)         AngularGrid ... 2 (Lebedev-110)
Angular grid pruning method      GridPruning ... 4 (adaptive)
Weight generation scheme         WeightScheme... mBecke (2022)
Basis function cutoff            BFCut       ... 1.0000e-11
Integration weight cutoff        WCut        ... 1.0000e-14
Partially contracted basis set               ... on
Rotationally invariant grid construction     ... off
Angular grids for H and He will be reduced by one unit

Total number of grid points                  ...    17700
Total number of batches                      ...      147
Average number of points per batch           ...      120
Average number of grid points per atom       ...     1180
UseSFitting                                  ... on

GRIDX 3
-------
General Integration Accuracy     IntAcc      ... 4.338
Radial Grid Type                 RadialGrid  ... OptM3 with GC (2021)
Angular Grid (max. ang.)         AngularGrid ... 3 (Lebedev-194)
Angular grid pruning method      GridPruning ... 4 (adaptive)
Weight generation scheme         WeightScheme... mBecke (2022)
Basis function cutoff            BFCut       ... 1.0000e-11
Integration weight cutoff        WCut        ... 1.0000e-14
Partially contracted basis set               ... on
Rotationally invariant grid construction     ... off
Angular grids for H and He will be reduced by one unit

Total number of grid points                  ...    38688
Total number of batches                      ...      312
Average number of points per batch           ...      124
Average number of grid points per atom       ...     2579
UseSFitting                                  ... on
Grids setup in   0.4 sec
Initializing property integral containers    ... done (  0.0 sec)

SHARK setup successfully completed in   0.6 seconds

Maximum memory used throughout the entire STARTUP-calculation: 19.5 MB


           ************************************************************
           *        Program running with 8 parallel MPI-processes     *
           *              working on a common directory               *
           ************************************************************
-------------------------------------------------------------------------------
                                 ORCA GUESS
                   Start orbitals & Density for SCF / CASSCF
-------------------------------------------------------------------------------

------------
SCF SETTINGS
------------
Hamiltonian:
 Density Functional     Method          .... DFT(GTOs)
 Exchange Functional    Exchange        .... WB97X-V
 Correlation Functional Correlation     .... WB97X-V
 Gradients option       PostSCFGGA      .... off
 Hybrid DFT is turned on
   Fraction HF Exchange ScalHFX         ....  0.167000
   Scaling of DF-GGA-X  ScalDFX         ....  0.000000
   Scaling of DF-GGA-C  ScalDFC         ....  1.000000
   Scaling of DF-LDA-C  ScalLDAC        ....  1.000000
   Perturbative correction              ....  0.000000
 Long-range corrected/Screened/Range-Separated Hybrid DFT is turned on
   Amount of maximum screened exact exchange              ....  0.833000
   Range separation parameter mu (erf(mu*r12)/r12)        ....  0.300000
   NL short-range parameter             ....  6.000000
   NL long-range parameter              ....  0.010000
 RI-approximation to the Coulomb term is turned on
   Number of AuxJ basis functions       .... 393
   RIJ-COSX (HFX calculated with COS-X)).... on


General Settings:
 Integral files         IntName         .... neb
 Hartree-Fock type      HFTyp           .... UHF
 Total Charge           Charge          ....    0
 Multiplicity           Mult            ....    2
 Number of Electrons    NEL             ....   35
 Basis Dimension        Dim             ....  123
 Nuclear Repulsion      ENuc            ....    126.7089476479 Eh

Convergence Acceleration:
 AO-DIIS                CNVDIIS         .... on
   Start iteration      DIISMaxIt       ....    12
   Startup error        DIISStart       ....  0.200000
   # of expansion vecs  DIISMaxEq       ....     5
   Bias factor          DIISBfac        ....   1.050
   Max. coefficient     DIISMaxC        ....  10.000
 MO-DIIS                CNVKDIIS        .... off
 Trust-Rad. Augm. Hess. CNVTRAH         .... auto
   Auto Start mean grad. ratio tolernc. ....  1.125000
   Auto Start start iteration           ....     1
   Auto Start num. interpolation iter.  ....    10
   Max. Number of Micro iterations      ....    24
   Max. Number of Macro iterations      .... Maxiter - #DIIS iter
   Number of Davidson start vectors     ....     2
   Converg. threshold    (grad. norm)   ....   1.000e-05
   Grad. Scal. Fac. for Micro threshold ....   0.100
   Minimum threshold for Micro iter.    ....   1.000e-02
   NR start threshold (gradient norm)   ....   1.000e-04
   Initial trust radius                 ....   0.400
   Minimum AH scaling param. (alpha)    ....   1.000
   Maximum AH scaling param. (alpha)    .... 1000.000
   Quad. conv. algorithm                .... NR
   White noise on init. David. guess    .... on
   Maximum white noise                  ....   0.010
   Pseudo random numbers                .... off
   Inactive MOs                         .... canonical
   Orbital update algorithm             .... Taylor
   Preconditioner                       .... Diag
   Full preconditioner red. dimension   ....   250
 SOSCF                 CNVSOSCF           .... on
   Start iteration     SOSCFMaxIt         ....   150
   Startup grad/error  SOSCFStart         ....  0.003300
   Hessian update      SOSCFHessUp        .... L-BFGS
   Autom. constraints  SOSCFAutoConstrain .... off
 Level Shifting         CNVShift        .... on
   Level shift para.    LevelShift      ....    0.2500
   Turn off err/grad.   ShiftErr        ....    0.0010
 Zerner damping         CNVZerner       .... off
 Static damping         CNVDamp         .... on
   Fraction old density DampFac         ....    0.7000
   Max. Damping (<1)    DampMax         ....    0.9800
   Min. Damping (>=0)   DampMin         ....    0.0000
   Turn off err/grad.   DampErr         ....    0.1000

SCF Procedure:
 Maximum # iterations   MaxIter         ....   125
 SCF integral mode      SCFMode         .... Direct
   Integral package                     .... SHARK and LIBINT hybrid scheme
 Reset frequency        DirectResetFreq ....    20
 Integral Threshold     Thresh          ....  2.500e-11 Eh
 Primitive CutOff       TCut            ....  2.500e-12 Eh

Convergence Tolerance:
 Convergence Check Mode ConvCheckMode   .... Total+1el-Energy
 Convergence forced     ConvForced      .... 0
 Energy Change          TolE            ....  1.000e-08 Eh
 1-El. energy change                    ....  1.000e-05 Eh
 Orbital Gradient       TolG            ....  1.000e-05
 Orbital Rotation angle TolX            ....  1.000e-05
 DIIS Error             TolErr          ....  5.000e-07

---------------------
INITIAL GUESS: MOREAD
---------------------
Guess MOs are being read from file: neb.gbw
Input Geometry matches current geometry (good)
Input basis set matches current basis set (good)
MOs were renormalized
MOs were reorthogonalized (Cholesky)
                      ------------------
                      INITIAL GUESS DONE (   0.0 sec)
                      ------------------
             **** ENERGY FILE WAS UPDATED (neb.en.tmp) ****
Finished Guess after   0.5 sec
Maximum memory used throughout the entire GUESS-calculation: 10.0 MB


           ************************************************************
           *        Program running with 8 parallel MPI-processes     *
           *              working on a common directory               *
           ************************************************************

-------------------------------------------------------------------------------------------
                                      ORCA LEAN-SCF
                              memory conserving SCF solver
-------------------------------------------------------------------------------------------

----------------------------------------D-I-I-S--------------------------------------------
Iteration    Energy (Eh)           Delta-E    RMSDP     MaxDP     DIISErr   Damp  Time(sec)
-------------------------------------------------------------------------------------------
               ***  Starting incremental Fock matrix formation  ***
                              *** Initializing SOSCF ***
---------------------------------------S-O-S-C-F--------------------------------------
Iteration    Energy (Eh)           Delta-E    RMSDP     MaxDP     MaxGrad    Time(sec)
--------------------------------------------------------------------------------------
    1    -49.8515588357744832     0.00e+00  1.45e-06  1.59e-05  7.88e-06     1.6
               *** Restarting incremental Fock matrix formation ***
    2    -49.8515588387140838    -2.94e-09  1.30e-06  2.72e-05  1.95e-05     1.6
    3    -49.8515588423203440    -3.61e-09  5.08e-06  1.31e-04  1.92e-05     0.9
                 **** Energy Check signals convergence ****

               *****************************************************
               *                     SUCCESS                       *
               *           SCF CONVERGED AFTER   3 CYCLES          *
               *****************************************************

Recomputing exchange energy using gridx3       ... done (    2.880 sec)
Old exchange energy                            :     -6.812177894 Eh
New exchange energy                            :     -6.812193747 Eh
Exchange energy change after final integration :     -0.000015853 Eh
Total energy after final integration           :    -49.851574707 Eh
             **** ENERGY FILE WAS UPDATED (neb.en.tmp) ****

----------------
TOTAL SCF ENERGY
----------------

Total Energy       :        -49.85157470657156 Eh           -1356.53031 eV

Components:
Nuclear Repulsion  :        126.70894764787630 Eh            3447.92575 eV
Electronic Energy  :       -176.56050650103711 Eh           -4804.45564 eV
One Electron Energy:       -326.33178889895879 Eh           -8879.93942 eV
Two Electron Energy:        149.77128239792168 Eh            4075.48379 eV

Virial components:
Potential Energy   :        -88.85257337479769 Eh           -2417.80144 eV
Kinetic Energy     :         39.00099866822613 Eh            1061.27113 eV
Virial Ratio       :          2.27821277425866

DFT components:
N(Alpha)           :       18.000013269229 electrons
N(Beta)            :       17.000012820808 electrons
N(Total)           :       35.000026090037 electrons
E(X)               :       -7.457639300384 Eh       
E(C)               :       -1.298608682571 Eh       
E(XC)              :       -8.756247982955 Eh       

---------------
SCF CONVERGENCE
---------------

  Last Energy change         ...    3.6063e-09  Tolerance :   1.0000e-08
  Last MAX-Density change    ...    1.3092e-04  Tolerance :   1.0000e-07
  Last RMS-Density change    ...    5.0778e-06  Tolerance :   5.0000e-09
  Last DIIS Error            ...    1.7514e-05  Tolerance :   5.0000e-07
  Last Orbital Gradient      ...    1.9181e-05  Tolerance :   1.0000e-05
  Last Orbital Rotation      ...    2.5653e-04  Tolerance :   1.0000e-05


----------------------
UHF SPIN CONTAMINATION
----------------------

Warning: in a DFT calculation there is little theoretical justification to 
         calculate <S**2> as in Hartree-Fock theory. We will do it anyways
         but you should keep in mind that the values have only limited relevance

Expectation value of <S**2>     :     0.753328
Ideal value S*(S+1) for S=0.5   :     0.750000
Deviation                       :     0.003328

----------------
ORBITAL ENERGIES
----------------
                 SPIN UP ORBITALS
  NO   OCC          E(Eh)            E(eV) 
   0   1.0000      -1.123916       -30.5833 
   1   1.0000      -0.996872       -27.1263 
   2   1.0000      -0.853807       -23.2333 
   3   1.0000      -0.849699       -23.1215 
   4   1.0000      -0.707989       -19.2654 
   5   1.0000      -0.660071       -17.9614 
   6   1.0000      -0.627763       -17.0823 
   7   1.0000      -0.597678       -16.2637 
   8   1.0000      -0.581775       -15.8309 
   9   1.0000      -0.524175       -14.2635 
  10   1.0000      -0.514167       -13.9912 
  11   1.0000      -0.496501       -13.5105 
  12   1.0000      -0.465809       -12.6753 
  13   1.0000      -0.462390       -12.5823 
  14   1.0000      -0.455453       -12.3935 
  15   1.0000      -0.454541       -12.3687 
  16   1.0000      -0.450761       -12.2658 
  17   1.0000      -0.350772        -9.5450 
  18   0.0000       0.072961         1.9854 
  19   0.0000       0.093578         2.5464 
  20   0.0000       0.100884         2.7452 
  21   0.0000       0.110191         2.9984 
  22   0.0000       0.116408         3.1676 
  23   0.0000       0.139636         3.7997 
  24   0.0000       0.142609         3.8806 
  25   0.0000       0.148703         4.0464 
  26   0.0000       0.161162         4.3854 
  27   0.0000       0.181116         4.9284 
  28   0.0000       0.262481         7.1425 

                 SPIN DOWN ORBITALS
  NO   OCC          E(Eh)            E(eV) 
   0   1.0000      -1.052936       -28.6519 
   1   1.0000      -0.996133       -27.1062 
   2   1.0000      -0.853242       -23.2179 
   3   1.0000      -0.849469       -23.1152 
   4   1.0000      -0.707786       -19.2598 
   5   1.0000      -0.659480       -17.9454 
   6   1.0000      -0.627377       -17.0718 
   7   1.0000      -0.595739       -16.2109 
   8   1.0000      -0.555297       -15.1104 
   9   1.0000      -0.517028       -14.0691 
  10   1.0000      -0.496093       -13.4994 
  11   1.0000      -0.465808       -12.6753 
  12   1.0000      -0.462280       -12.5793 
  13   1.0000      -0.455811       -12.4033 
  14   1.0000      -0.453462       -12.3393 
  15   1.0000      -0.424918       -11.5626 
  16   1.0000      -0.351217        -9.5571 
  17   0.0000      -0.057675        -1.5694 
  18   0.0000       0.075396         2.0516 
  19   0.0000       0.096272         2.6197 
  20   0.0000       0.101971         2.7748 
  21   0.0000       0.110732         3.0132 
  22   0.0000       0.117311         3.1922 
  23   0.0000       0.139827         3.8049 
  24   0.0000       0.143393         3.9019 
  25   0.0000       0.152043         4.1373 
  26   0.0000       0.161510         4.3949 
  27   0.0000       0.181768         4.9461 
*Only the first 10 virtual orbitals were printed.
-------
TIMINGS
-------

Total SCF time: 0 days 0 hours 0 min 8 sec 

Total time                  ....       8.626 sec
Sum of individual times     ....       7.555 sec  ( 87.6%)

SCF preparation             ....       0.520 sec  (  6.0%)
Fock matrix formation       ....       6.942 sec  ( 80.5%)
  Startup                   ....       0.007 sec  (  0.1% of F)
  Split-RI-J                ....       0.218 sec  (  3.1% of F)
  Chain of spheres X        ....       7.171 sec  (103.3% of F)
  XC integration            ....       0.510 sec  (  7.4% of F)
    Basis function eval.    ....       0.141 sec  ( 27.7% of XC)
    Density eval.           ....       0.095 sec  ( 18.6% of XC)
    XC-Functional eval.     ....       0.081 sec  ( 15.9% of XC)
    XC-Potential eval.      ....       0.119 sec  ( 23.3% of XC)
Diagonalization             ....       0.000 sec  (  0.0%)
Density matrix formation    ....       0.015 sec  (  0.2%)
Total Energy calculation    ....       0.011 sec  (  0.1%)
Population analysis         ....       0.001 sec  (  0.0%)
Orbital Transformation      ....       0.013 sec  (  0.1%)
Orbital Orthonormalization  ....       0.000 sec  (  0.0%)
DIIS solution               ....       0.016 sec  (  0.2%)
SOSCF solution              ....       0.037 sec  (  0.4%)
Finished LeanSCF after   8.6 sec

Maximum memory used throughout the entire LEANSCF-calculation: 16.3 MB


           ************************************************************
           *        Program running with 8 parallel MPI-processes     *
           *              working on a common directory               *
           ************************************************************

------------------------------------------------------------------------------
                         ORCA PROPERTY INTEGRAL CALCULATIONS
------------------------------------------------------------------------------

GBWName                                   ... neb.gbw
Number of atoms                           ...     15
Number of basis functions                 ...    123
Max core memory                           ...   4096 MB

Dipole integrals                          ... YES
Quadrupole integrals                      ...  NO
Linear momentum integrals                 ...  NO
Angular momentum integrals                ...  NO
Higher moments length integrals           ...  NO
Higher moments velocity integrals         ...  NO
Kinetic energy integrals                  ...  NO
GIAO right hand sides                     ...  NO
GIAO dipole derivative integrals          ...  NO
SOC integrals                             ...  NO
EPR diamagnetic integrals (GIAO)          ...  NO
EPR gauge integrals                       ...  NO
Field gradient integrals                  ...  NO (   0 nuclei)
Spin-dipole/Fermi contact integrals       ...  NO (   0 nuclei)
Contact density integrals                 ...  NO (   0 nuclei)
Nucleus-orbit integrals                   ...  NO (   0 nuclei)
Geometric perturbations                   ...  NO (  15 nuclei)

Choice of electric origin   ... Center of mass
Position of electric origin ... (  0.1865, -0.3957,  0.4197) 
Choice of magnetic origin   ... GIAO
Position of magnetic origin ... (  0.0000,  0.0000,  0.0000) 

Calculating integrals                     ... Electric Dipole (Length)     done (  0.0 sec)

Property integrals calculated in   0.0 sec

Maximum memory used throughout the entire PROPINT-calculation: 10.1 MB


-------------------------------------------------------------------------------
                          DFT DISPERSION CORRECTION                            
                                                                               
                                DFTD4 V3.4.0                                   
-------------------------------------------------------------------------------
The wB97X-3c composite method is recognized
Using three-body term ABC
Active option DFTDOPT                   ...         5   

-------------------------   ----------------
Dispersion correction           -0.013275135
-------------------------   ----------------


-------------------------   --------------------
FINAL SINGLE POINT ENERGY       -49.864849841791
-------------------------   --------------------



           ************************************************************
           *        Program running with 8 parallel MPI-processes     *
           *              working on a common directory               *
           ************************************************************
------------------------------------------------------------------------------
                         ORCA SCF GRADIENT CALCULATION
------------------------------------------------------------------------------

Nuc. rep. gradient        (SHARK) ... done (  0.0 sec)
HCore & Overlap gradient  (SHARK) ... done (  0.0 sec)
ECP gradient              (SHARK) ... done (  0.1 sec)
Split-RIJ-J gradient      (SHARK) ... done (  0.3 sec)
done (  5.7 sec)
XC gradient                       ... done (  0.5 sec)
Dispersion correction             ... done (  0.0 sec)

-------------------
DISPERSION GRADIENT
-------------------

   1   C   :    0.000393197    0.000162623   -0.000149755
   2   C   :   -0.000017363    0.000429884   -0.000024250
   3   C   :   -0.000408407    0.000134712   -0.000121661
   4   C   :   -0.000283904   -0.000330958   -0.000186728
   5   C   :    0.000205758   -0.000322908   -0.000193505
   6   H   :    0.000138221    0.000037742   -0.000075891
   7   H   :    0.000150256    0.000052809    0.000010046
   8   H   :    0.000001752    0.000154304   -0.000021289
   9   H   :   -0.000008962    0.000155961    0.000062081
  10   H   :   -0.000151938    0.000042886    0.000013191
  11   H   :   -0.000127224    0.000036129   -0.000079719
  12   H   :   -0.000092387   -0.000133340   -0.000026901
  13   H   :    0.000082766   -0.000134750   -0.000033698
  14   O   :    0.000015856   -0.000202820    0.000620984
  15   H   :    0.000102378   -0.000082275    0.000207096

Difference to translation invariance:
           :   -0.0000000000   -0.0000000000   -0.0000000000

Difference to rotation invariance:
           :   -0.0000000000    0.0000000000    0.0000000000

Norm of the Dispersion gradient    ...    0.0013005837
RMS gradient                       ...    0.0001938796
MAX gradient                       ...    0.0006209844

------------------
CARTESIAN GRADIENT
------------------

   1   C   :    0.000015525    0.000004100    0.000016280
   2   C   :   -0.000021864   -0.000026597    0.000091093
   3   C   :   -0.000035528   -0.000015301    0.000037482
   4   C   :    0.000247989    0.000008076    0.000029927
   5   C   :   -0.000255494    0.000026114    0.000052100
   6   H   :   -0.000088980    0.000013348   -0.000053410
   7   H   :    0.000047710   -0.000003685   -0.000037221
   8   H   :   -0.000019081   -0.000036091    0.000058672
   9   H   :   -0.000010892    0.000047907    0.000086637
  10   H   :   -0.000070135    0.000043818   -0.000032988
  11   H   :    0.000135975   -0.000050908   -0.000026100
  12   H   :   -0.000036488   -0.000094733   -0.000091625
  13   H   :    0.000029340   -0.000081060    0.000024940
  14   O   :    0.000035187   -0.000234223    0.000059088
  15   H   :    0.000026735    0.000399234   -0.000214874

Difference to translation invariance:
           :    0.0000000000   -0.0000000000    0.0000000000

Difference to rotation invariance:
           :    0.0000893292   -0.0001267832   -0.0000723255

Norm of the Cartesian gradient     ...    0.0007042720
RMS gradient                       ...    0.0001049867
MAX gradient                       ...    0.0003992336

-------
TIMINGS
-------

Total SCF gradient time     ....        6.645 sec

Densities                   ....       0.000 sec  (  0.0%)
One electron gradient       ....       0.036 sec  (  0.5%)
RI-J Coulomb gradient       ....       0.278 sec  (  4.2%)
COSX gradient               ....       5.658 sec  ( 85.1%)
XC gradient                 ....       0.541 sec  (  8.1%)

Maximum memory used throughout the entire SCFGRAD-calculation: 30.0 MB
------------------------------------------------------------------------------
                         ORCA GEOMETRY RELAXATION STEP
------------------------------------------------------------------------------

Reading the OPT-File                    .... done
Getting information on internals        .... done
Copying old internal coords+grads       .... done
Making the new internal coordinates     .... (2022 redundants) done
Validating the new internal coordinates .... (2022 redundants) done
Calculating the B-matrix                .... done
Calculating the G,G- and P matrices     .... done
Transforming gradient to internals      .... done
Projecting the internal gradient        .... done
Number of atoms                         ....  15
Number of internal coordinates          .... 112
Current Energy                          ....   -49.864849842 Eh
Current gradient norm                   ....     0.000704272 Eh/bohr
Maximum allowed component of the step   ....  0.300
Current trust radius                    ....  0.100
Evaluating the initial hessian          ....  (read) 
(Reading Exact Hessian)...  
InHessName: neb.appr.hess	The file <neb.appr.hess> is opened as a .hess file
done
done
Projecting the Hessian                  .... done
Diagonalizing the Hessian               .... done
Dimension of the hessian                .... 112
Lowest eigenvalues of the Hessian:
 -0.000891549  0.000030375  0.000622145  0.001394470  0.003146660
[...]
      3      -0.000394   0.000021  -0.000001
      4      -0.000004   0.001758  -0.000012
      5       0.000007   0.000515  -0.000075
      6       0.002379  -0.003241   0.000040
      7      -0.001794   0.002450   0.000002
      8      -0.000979   0.000400  -0.000089
      9       0.033805  -0.043744  -0.000182
     10       0.049349  -0.049567  -0.000040
     11       0.000546  -0.000449   0.000222
     12       0.032732   0.042967   0.000186
     13      -0.049742  -0.050521  -0.000039
     14      -0.001537  -0.001749   0.000223
     15      -0.001879  -0.005319   0.000151
     16      -0.002745  -0.004266   0.000295
     17       0.005389   0.012222   0.000137
     18      -0.019987  -0.023405   0.000513
     19      -0.005938  -0.007020   0.000190
     20      -0.017082  -0.017833   0.000026
     21       0.000671  -0.000006   0.000003
     22       0.000061  -0.008777   0.000069
     23      -0.000049   0.004680   0.000238
     24       0.000446  -0.000161   0.000018
     25       0.000002  -0.002737   0.000368
     26       0.000012  -0.009487   0.000622
     27      -0.019424   0.022659  -0.000505
     28       0.006301  -0.007389   0.000185
     29       0.017675  -0.018410   0.000029
     30      -0.002027   0.005605  -0.000143
     31       0.002799  -0.004346   0.000290
     32      -0.005419   0.012079   0.000133
     33      -0.408050   0.409973   0.001320
     34      -0.575319   0.569476   0.001342
     35      -0.008265   0.008110   0.000643
     36      -0.395968  -0.401071  -0.001246
     37       0.580128   0.578842   0.001312
     38       0.020209   0.020275   0.000654
     39      -0.000061  -0.000005   0.001611
     40       0.000005  -0.000165   0.056784
     41       0.000004  -0.000038   0.026252
     42       0.001794   0.000083  -0.025697
     43      -0.000080   0.002652  -0.904318
     44      -0.000050   0.000499  -0.421454


-----------
IR SPECTRUM
-----------

 Mode   freq       eps      Int      T**2         TX        TY        TZ
       cm**-1   L/(mol*cm) km/mol    a.u.
----------------------------------------------------------------------------
  7:     50.50   0.001692    8.55  0.010453  (-0.102203  0.001800  0.002100)
  8:     86.22   0.000658    3.32  0.002381  ( 0.002183 -0.016436  0.045888)
  9:    146.05   0.017421   88.04  0.037224  (-0.192802  0.006838 -0.002085)
 10:    166.71   0.001549    7.83  0.002900  ( 0.007934  0.027245 -0.045763)
 11:    189.76   0.014754   74.56  0.024264  (-0.004094 -0.061865  0.142897)
 12:    404.91   0.000002    0.01  0.000002  (-0.001218  0.000001 -0.000265)
 13:    626.30   0.002871   14.51  0.001431  ( 0.000551 -0.002117  0.037761)
 14:    734.64   0.009272   46.86  0.003939  ( 0.000977 -0.000665  0.062747)
 15:    802.81   0.000098    0.49  0.000038  (-0.006168  0.000049  0.000100)
 16:    849.72   0.000168    0.85  0.000062  (-0.000161 -0.002030 -0.007590)
 17:    917.04   0.000508    2.57  0.000173  (-0.013150  0.000103  0.000160)
 18:    944.94   0.003273   16.54  0.001081  (-0.032874  0.000218  0.000438)
 19:    947.58   0.000106    0.54  0.000035  (-0.000443  0.005748  0.001342)
 20:    999.54   0.000096    0.49  0.000030  ( 0.005475 -0.000088 -0.000042)
 21:   1010.46   0.000514    2.60  0.000159  ( 0.000159  0.011498  0.005135)
 22:   1077.40   0.000461    2.33  0.000133  ( 0.011550 -0.000113 -0.000190)
 23:   1094.39   0.001561    7.89  0.000445  (-0.000287 -0.000834 -0.021081)
 24:   1146.87   0.000201    1.02  0.000055  ( 0.000035 -0.001493  0.007243)
 25:   1187.50   0.000516    2.61  0.000136  (-0.011646  0.000102  0.000137)
 26:   1265.05   0.000454    2.30  0.000112  (-0.000176 -0.003150 -0.010107)
 27:   1268.73   0.000011    0.06  0.000003  (-0.001664  0.000011  0.000079)
 28:   1337.87   0.000447    2.26  0.000104  ( 0.010211 -0.000084 -0.000141)
 29:   1365.92   0.000046    0.23  0.000011  ( 0.003253 -0.000016 -0.000043)
 30:   1376.77   0.000614    3.10  0.000139  ( 0.000126  0.011749  0.001071)
 31:   1421.01   0.000629    3.18  0.000138  (-0.011755  0.000116  0.000151)
 32:   1509.27   0.000867    4.38  0.000179  ( 0.000131  0.004886  0.012468)
 33:   1516.80   0.001427    7.21  0.000294  ( 0.017134 -0.000073 -0.000116)
 34:   1540.69   0.001274    6.44  0.000258  (-0.000152 -0.015838 -0.002666)
 35:   1726.80   0.002094   10.58  0.000378  ( 0.000189 -0.011216  0.015892)
 36:   3096.15   0.003754   18.97  0.000378  ( 0.001200 -0.005012  0.018758)
 37:   3097.99   0.009717   49.10  0.000979  ( 0.031267 -0.000113 -0.001083)
 38:   3129.72   0.003955   19.99  0.000394  (-0.000234 -0.019365 -0.004397)
 39:   3162.77   0.002473   12.50  0.000244  (-0.012302  0.006818  0.006797)
 40:   3163.38   0.002414   12.20  0.000238  ( 0.009700  0.008686  0.008281)
 41:   3191.43   0.004292   21.69  0.000420  (-0.000187  0.011601 -0.016884)
 42:   3243.77   0.000848    4.29  0.000082  ( 0.009032 -0.000015 -0.000147)
 43:   3268.61   0.002736   13.83  0.000261  (-0.000208 -0.015875 -0.003023)
 44:   3841.63   0.005324   26.90  0.000432  (-0.000519 -0.018410 -0.009656)

* The epsilon (eps) is given for a Dirac delta lineshape.
** The dipole moment derivative (T) already includes vibrational overlap.

The first frequency considered to be a vibration is 7
The total number of vibrations considered is 38


--------------------------
THERMOCHEMISTRY AT 298.15K
--------------------------

Temperature         ...   298.15 K
Pressure            ...     1.00 atm
Total Mass          ...    85.13 AMU
Quasi RRHO          ...     True
Cut-Off Frequency   ...     1.00 cm^-1

Throughout the following assumptions are being made:
  (1) The electronic state is orbitally nondegenerate
      but the spin degeneracy is treated
  (2) There are no thermally accessible electronically excited states
  (3) Hindered rotations indicated by low frequency modes are not
      treated as such but are treated as vibrations and this may
      cause some error
  (4) All equations used are the standard statistical mechanics
      equations for an ideal gas
  (5) All vibrations are strictly harmonic

freq.      50.50  E(vib)   ...       0.52 
freq.      86.22  E(vib)   ...       0.48 
freq.     146.05  E(vib)   ...       0.41 
freq.     166.71  E(vib)   ...       0.39 
freq.     189.76  E(vib)   ...       0.36 
freq.     404.91  E(vib)   ...       0.19 
freq.     626.30  E(vib)   ...       0.09 
freq.     734.64  E(vib)   ...       0.06 
freq.     802.81  E(vib)   ...       0.05 
freq.     849.72  E(vib)   ...       0.04 
freq.     917.04  E(vib)   ...       0.03 
freq.     944.94  E(vib)   ...       0.03 
freq.     947.58  E(vib)   ...       0.03 
freq.     999.54  E(vib)   ...       0.02 
freq.    1010.46  E(vib)   ...       0.02 
freq.    1077.40  E(vib)   ...       0.02 
freq.    1094.39  E(vib)   ...       0.02 
freq.    1146.87  E(vib)   ...       0.01 
freq.    1187.50  E(vib)   ...       0.01 
freq.    1265.05  E(vib)   ...       0.01 
freq.    1268.73  E(vib)   ...       0.01 
freq.    1337.87  E(vib)   ...       0.01 
freq.    1365.92  E(vib)   ...       0.01 
freq.    1376.77  E(vib)   ...       0.01 
freq.    1421.01  E(vib)   ...       0.00 
freq.    1509.27  E(vib)   ...       0.00 
freq.    1516.80  E(vib)   ...       0.00 
freq.    1540.69  E(vib)   ...       0.00 
freq.    1726.80  E(vib)   ...       0.00 
freq.    3096.15  E(vib)   ...       0.00 
freq.    3097.99  E(vib)   ...       0.00 
freq.    3129.72  E(vib)   ...       0.00 
freq.    3162.77  E(vib)   ...       0.00 
freq.    3163.38  E(vib)   ...       0.00 
freq.    3191.43  E(vib)   ...       0.00 
freq.    3243.77  E(vib)   ...       0.00 
freq.    3268.61  E(vib)   ...       0.00 
freq.    3841.63  E(vib)   ...       0.00 

------------
INNER ENERGY
------------

The inner energy is: U= E(el) + E(ZPE) + E(vib) + E(rot) + E(trans)
    E(el)   - is the total energy from the electronic structure calculation
              = E(kin-el) + E(nuc-el) + E(el-el) + E(nuc-nuc)
    E(ZPE)  - the the zero temperature vibrational energy from the frequency calculation
    E(vib)  - the the finite temperature correction to E(ZPE) due to population
              of excited vibrational states
    E(rot)  - is the rotational thermal energy
    E(trans)- is the translational thermal energy

Summary of contributions to the inner energy U:
Electronic energy                ...    -49.86534313 Eh
Zero point energy                ...      0.12964521 Eh      81.35 kcal/mol
Thermal vibrational correction   ...      0.00450897 Eh       2.83 kcal/mol
Thermal rotational correction    ...      0.00141627 Eh       0.89 kcal/mol
Thermal translational correction ...      0.00141627 Eh       0.89 kcal/mol
-----------------------------------------------------------------------
Total thermal energy                    -49.72835641 Eh


Summary of corrections to the electronic energy:
(perhaps to be used in another calculation)
Total thermal correction                  0.00734151 Eh       4.61 kcal/mol
Non-thermal (ZPE) correction              0.12964521 Eh      81.35 kcal/mol
-----------------------------------------------------------------------
Total correction                          0.13698672 Eh      85.96 kcal/mol


--------
ENTHALPY
--------

The enthalpy is H = U + kB*T
                kB is Boltzmann's constant
Total thermal energy              ...    -49.72835641 Eh 
Thermal Enthalpy correction       ...      0.00094421 Eh       0.59 kcal/mol
-----------------------------------------------------------------------
Total Enthalpy                    ...    -49.72741221 Eh


Note: Only C1 symmetry has been detected, increase convergence thresholds 
      if your molecule has a higher symmetry. Symmetry factor of 1.0 is   
      used for the rotational entropy correction. 
 

Note: Rotational entropy computed according to Herzberg 
Infrared and Raman Spectra, Chapter V,1, Van Nostrand Reinhold, 1945 
Point Group:  C1, Symmetry Number:   1  
Rotational constants in cm-1:     0.134917     0.088388     0.087487 

Vibrational entropy computed according to the QRRHO of S. Grimme
Chem.Eur.J. 2012 18 9955 using a reference frequency of 100.0 cm-1


-------
ENTROPY
-------

The entropy contributions are T*S = T*(S(el)+S(vib)+S(rot)+S(trans))
     S(el)   - electronic entropy
     S(vib)  - vibrational entropy
     S(rot)  - rotational entropy
     S(trans)- translational entropy
The entropies will be listed as multiplied by the temperature to get
units of energy

Electronic entropy                ...      0.00065446 Eh      0.41 kcal/mol
Vibrational entropy               ...      0.00816848 Eh      5.13 kcal/mol
Rotational entropy                ...      0.01275189 Eh      8.00 kcal/mol
Translational entropy             ...      0.01864317 Eh     11.70 kcal/mol
-----------------------------------------------------------------------
Final entropy term                ...      0.04021800 Eh     25.24 kcal/mol

In case the symmetry of your molecule has not been determined correctly
or in case you have a reason to use a different symmetry number we print 
out the resulting rotational entropy values for sn=1,12:

 non-linear molecules -----------------------------------
|  sn= 1 | S(rot)=       0.01275189 Eh      8.00 kcal/mol|
|  sn= 2 | S(rot)=       0.01209743 Eh      7.59 kcal/mol|
|  sn= 3 | S(rot)=       0.01171460 Eh      7.35 kcal/mol|
|  sn= 4 | S(rot)=       0.01144298 Eh      7.18 kcal/mol|
|  sn= 5 | S(rot)=       0.01123229 Eh      7.05 kcal/mol|
|  sn= 6 | S(rot)=       0.01106014 Eh      6.94 kcal/mol|
|  sn= 7 | S(rot)=       0.01091460 Eh      6.85 kcal/mol|
|  sn= 8 | S(rot)=       0.01078852 Eh      6.77 kcal/mol|
|  sn= 9 | S(rot)=       0.01067731 Eh      6.70 kcal/mol|
|  sn=10 | S(rot)=       0.01057783 Eh      6.64 kcal/mol|
|  sn=11 | S(rot)=       0.01048784 Eh      6.58 kcal/mol|
|  sn=12 | S(rot)=       0.01040569 Eh      6.53 kcal/mol|
 linear molecules ---------------------------------------
|  Dinfh | S(rot)=       0.00762608 Eh      4.79 kcal/mol|
|  Cinfv | S(rot)=       0.00828054 Eh      5.20 kcal/mol|
 --------------------------------------------------------


-------------------
GIBBS FREE ENERGY
-------------------

The Gibbs free energy is G = H - T*S

Total enthalpy                    ...    -49.72741221 Eh 
Total entropy correction          ...     -0.04021800 Eh    -25.24 kcal/mol
-----------------------------------------------------------------------
Final Gibbs free energy         ...    -49.76763020 Eh

For completeness - the Gibbs free energy minus the electronic energy
G-E(el)                           ...      0.09771293 Eh     61.32 kcal/mol


Maximum memory used throughout the entire PROP-calculation: 73.7 MB

--------------------------------
SUGGESTED CITATIONS FOR THIS RUN
--------------------------------

Below you find a list of papers that are relevant to this ORCA run
We neither can nor want to force you to cite these papers, but we appreciate if you do
You receive ORCA, which is the product of decades of hard work by many enthusiastic individuals, for free
The only thing we kindly ask in return is that you cite our papers,
We deeply appreciate it, if you show your appreciation for ORCA by not just citing the generic ORCA reference.

Please note that relegating all ORCA citations to the supporting information does *not* help us.
SI sections are not indexed - citations you put there will not count into any citation statistics
But we need these citations in order to attract the funding resources that allow us to do what we are doing

Therefore, if you are a happy ORCA user, please consider citing a few of the papers listed below in the main body of your paper

In addition to the list printed below, the program has created the file neb.bibtex that contains the list in bibtex format
You can import this file easily into all common literature databanks and citation aid programs


List of essential papers. We consider these as the minimum necessary citations

  1. Mueller, M.; Hansen, A.; Grimme, S.
     wB97X-3c: A composite range-separated hybrid DFT method with a molecule-optimized polarized valence double-zeta basis set
     J. Chem. Phys. 2023 158 , 014103
     doi.org/10.1063/5.0133026
  2. Neese, F.
     Software update: the ORCA program system, version 6.0
     WIRES Comput. Molec. Sci. 2025 15(1), e70019
     doi.org/10.1002/wcms.7019

List of papers to cite with high priority. The work reported in these papers was absolutely
necessary for this run to complete.
Our perspective: the developers of density functionals and basis sets usually get cited in chemistry papers
Good! But without the algorithms to do something with them, the functionals or basis sets would not do anything.
Hence, in our opinion, the algorithm design and method developments papers are equally worthy of getting cited

  1. Neese, F.
     An improvement of the resolution of the identity approximation for the formation of the Coulomb matrix
     J. Comp. Chem. 2003 24(14), 1740-1747
     doi.org/10.1002/jcc.10318
  2. Neese, F.; Wennmohs, F.; Hansen, A.; Becker, U.
     Efficient, approximate and parallel Hartree-Fock and hybrid DFT calculations. A 'chain-of-spheres' algorithm for the Hartree-Fock exchange
     Chem. Phys. 2009 356(1-3), 98-109
     doi.org/10.1016/j.chemphys.2008.10.036
  3. Bykov, D.; Petrenko, T.; Izsak, R.; Kossmann, S.; Becker, U.; Valeev, E.; Neese, F.
     Efficient implementation of the analytic second derivatives of Hartree-Fock and hybrid DFT energies: a detailed analysis of different approximations
     Molec. Phys. 2015 113 , 1961-1977
     doi.org/10.1080/00268976.2015.1025114
  4. Caldeweyher, E.; Bannwarth, C.; Grimme, S.
     Extension of the D3 dispersion coefficient model
     J. Chem. Phys. 2017 147 , 034112
     doi.org/10.1063/1.4993215
  5. Caldeweyher, E.; Ehlert, S.; Hansen, A.; Neugebauer, H.; Spicher, S.; Bannwarth, C.; Grimme, S.
     A generally applicable atomic-charge dependent London dispersion correction
     J. Chem. Phys. 2019 150 , 154122
     doi.org/10.1063/1.5090222
  6. Caldeweyher, E.; Mewes, J.; Ehlert, S.; Grimme, S.
     Extension and evaluation of the D4 London-dispersion model for periodic systems
     Phys. Chem. Chem. Phys. 2020 22(16), 8499-8512
     doi.org/10.1039/D0CP00502A
  7. Asgeirsson, V.; Orri Birgisson, B.; Björnsson, R.; Becker, U.; Neese, F.; Riplinger, C.; Jonsson, H.
     Nudged Elastic Band Method for Molecular Reactions Using Energy-Weighted Springs Combined with Eigenvector Following
     J. Chem. Theory Comput. 2021 17(8), 4929-4945
     doi.org/10.1021/acs.jctc.1c00462
  8. Helmich-Paris, B.; de Souza, B.; Neese, F.; Izsák, R.
     An improved chain of spheres for exchange algorithm
     J. Chem. Phys. 2021 155(10), 104109
     doi.org/10.1063/5.0058766
  9. Neese, F.
     The SHARK Integral Generation and Digestion System
     J. Comp. Chem. 2022 44(3), 381
     doi.org/10.1002/jcc.26942
 10. Schmerwitz, Y.L.A.; Asgeirsson, V.; Jonsson, H.
     Improved Initialization of Optimal Path Calculations
     Using Sequential Traversal over the
     Image-Dependent Pair Potential Surface
     J. Chem. Theory Comput. 2023 20(1), 155-163
     doi.org/10.1021/acs.jctc.3c01111
 11. Wittmann, L.; Gordiy, I.; Friede, M.; Helmich-Paris, B.; Grimme, S.; Hansen, A.; Bursch, M.
     Extension of the D3 and D4 London Dispersion Corrections to the full Actinides Series
     Phys. Chem. Chem. Phys. 2024 26(32), 21379-21394
     doi.org/10.1039/D4CP01514B

List of suggested additional citations. These are papers that are important in the 'surrounding' of 
of this run, or papers that preceded the highly important papers. If you like your results we are grateful for a citation.

  1. Izsak, R.; Neese, F.
     An overlap fitted chain of spheres exchange method
     J. Chem. Phys. 2011 135 , 144105
     doi.org/10.1063/1.3646921
  2. Izsak, R.; Hansen, A.; Neese, F.
     The resolution of identity and chain of spheres approximations for the LPNO-CCSD singles Fock term
     Molec. Phys. 2012 110 , 2413-2417
     doi.org/10.1080/00268976.2012.687466
  3. Neese, F.
     The ORCA program system
     WIRES Comput. Molec. Sci. 2012 2(1), 73-78
     doi.org/10.1002/wcms.81
  4. Izsak, R.; Neese, F.; Klopper, W.
     Robust fitting techniques in the chain of spheres approximation to the Fock exchange: The role of the complementary space
     J. Chem. Phys. 2013 139 , 
     doi.org/10.1063/1.4819264
  5. Neese, F.
     Software update: the ORCA program system, version 4.0
     WIRES Comput. Molec. Sci. 2018 8(1), 1-6
     doi.org/10.1002/wcms.1327
  6. Neese, F.; Wennmohs, F.; Becker, U.; Riplinger, C.
     The ORCA quantum chemistry program package
     J. Chem. Phys. 2020 152(22), 224108
     doi.org/10.1063/5.0004608
  7. Neese, F.
     Software update: The ORCA program system—Version 5.0
     WIRES Comput. Molec. Sci. 2022 12(1), e1606
     doi.org/10.1002/wcms.1606

List of optional additional citations

  1. Neese, F.
     Approximate second-order SCF convergence for spin unrestricted wavefunctions
     Chem. Phys. Lett. 2000 325(1-3), 93-98
     doi.org/10.1016/s0009-2614(00)00662-x

Timings for individual modules:

Sum of individual times          ...    10740.701 sec (= 179.012 min)
Startup calculation              ...       92.582 sec (=   1.543 min)   0.9 %
SCF iterations                   ...     1095.818 sec (=  18.264 min)  10.2 %
Property integrals               ...      136.656 sec (=   2.278 min)   1.3 %
SCF Response                     ...       25.253 sec (=   0.421 min)   0.2 %
Property calculations            ...       63.804 sec (=   1.063 min)   0.6 %
SCF Gradient evaluation          ...      347.367 sec (=   5.789 min)   3.2 %
Geometry relaxation              ...        0.415 sec (=   0.007 min)   0.0 %
NEB Iterations                   ...     8978.806 sec (= 149.647 min)  83.6 %
                             ****ORCA TERMINATED NORMALLY****
TOTAL RUN TIME: 0 days 2 hours 57 minutes 41 seconds 958 msec
