
                                 *****************
                                 * O   R   C   A *
                                 *****************

                                            #,                                       
                                            ###                                      
                                            ####                                     
                                            #####                                    
                                            ######                                   
                                           ########,                                 
                                     ,,################,,,,,                         
                               ,,#################################,,                 
                          ,,##########################################,,             
                       ,#########################################, ''#####,          
                    ,#############################################,,   '####,        
                  ,##################################################,,,,####,       
                ,###########''''           ''''###############################       
              ,#####''   ,,,,##########,,,,          '''####'''          '####       
            ,##' ,,,,###########################,,,                        '##       
           ' ,,###''''                  '''############,,,                           
         ,,##''                                '''############,,,,        ,,,,,,###''
      ,#''                                            '''#######################'''  
     '                                                          ''''####''''         
             ,#######,   #######,   ,#######,      ##                                
            ,#'     '#,  ##    ##  ,#'     '#,    #''#        ,####,    ,#,          
            ##       ##  ##   ,#'  ##            #'  '#       #'       ,# #          
            ##       ##  #######   ##           ,######,      #####,      #          
            '#,     ,#'  ##    ##  '#,     ,#' ,#      #,     #,   #      #          
             '#######'   ##     ##  '#######'  #'      '#     '####' #    #          



                #########################################################
                #                        -***-                          #
                #          Department of theory and spectroscopy        #
                #                                                       #
                #                      Frank Neese                      #
                #                                                       #
                #     Directorship, Architecture, Infrastructure        #
                #                    SHARK, DRIVERS                     #
                #        Core code/Algorithms in most modules           #
                #                                                       #
                #        Max Planck Institute fuer Kohlenforschung      #
                #                Kaiser Wilhelm Platz 1                 #
                #                 D-45470 Muelheim/Ruhr                 #
                #                      Germany                          #
                #                                                       #
                #                  All rights reserved                  #
                #                        -***-                          #
                #########################################################


                         Program Version 6.1.1  -  RELEASE   -
                                (GIT: $487d211c$)
                          ($2025-11-21 10:33:24 +0100$)


 With contributions from (in alphabetic order):
[Max-Planck-Institut fuer Kohlenforschung]                               
  Daniel Aravena         : Magnetic Suceptibility                        
  Michael Atanasov       : Ab Initio Ligand Field Theory (pilot matlab implementation)
  Alexander A. Auer      : GIAO ZORA, VPT2 properties, NMR spectrum      
  Ute Becker             : All parallelization in ORCA, NUMFREQ, NUMCALC 
  Giovanni Bistoni       : ED, misc. LED, open-shell LED, HFLD           
  Dmytro Bykov           : pre 5.0 version of the SCF Hessian            
  Marcos Casanova-Páez   : Triplet and SCS-CIS(D). UHF-(DLPNO)-IP/EA/STEOM-CCSD. UHF-CVS-IP/STEOM-CCSD   
  Vijay G. Chilkuri      : MRCI spin determinant printing, contributions to CSF-ICE 
  Pauline Colinet        : FMM embedding                                 
  Dipayan Datta          : RHF DLPNO-CCSD density                        
  Achintya Kumar Dutta   : EOM-CC, STEOM-CC                              
  Nicolas Foglia         : Exact transition moments, OPA infrastructure, MCD improvements    
  Dmitry Ganyushin       : Spin-Orbit,Spin-Spin,Magnetic field MRCI      
  Miquel Garcia-Rates    : C-PCM and meta-GGA Hessian, CCSD/C-PCM, Gaussian charge scheme 
  Tiago L. C. Gouveia    : GS-ROHF, GS-ROCIS                             
  Yang Guo               : DLPNO-NEVPT2, F12-NEVPT2, CIM, IAO-localization        
  Andreas Hansen         : Spin unrestricted coupled pair/coupled cluster methods 
  Ingolf Harden          : AUTO-CI MPn and infrastructure                
  Benjamin Helmich-Paris : MC-RPA, TRAH-(SCF,CASSCF), AVAS, COSX integrals, SCF dyn. polar., MC-PDFT, srDFT 
  Lee Huntington         : MR-EOM, pCC                                   
  Robert Izsak           : Overlap fitted RIJCOSX, COSX-SCS-MP3, EOM     
  Riya Kayal             : Wick's Theorem for AUTO-CI, AUTO-CI UHF-CCSDT 
  Emily Kempfer          : AUTO-CI RHF CISDT and CCSDT, approximate NEVPT4
  Christian Kollmar      : KDIIS, OOCD, Brueckner-CCSD(T), CCSD density, CASPT2, CASPT2-K, improved NEVPT2 
  Axel Koslowski         : Symmetry handling                             
  Simone Kossmann        : meta-GGA functionals, TD-DFT gradient, OOMP2, (MP2 Hessian; deprecated post 5.0) 
  Lucas Lang             : DCDCAS, Hyperfine gauge corrections, ICE-SOC+SSC
  Marvin Lechner         : AUTO-CI (C++ implementation), FIC-MRCC        
  Spencer Leger          : CASSCF response                               
  Dagmar Lenk            : GEPOL surface, SMD, ORCA-2-JSON               
  Dimitrios Liakos       : Extrapolation schemes; Compound Job, Property file
  Dimitrios Manganas     : Further ROCIS development; embedding schemes. LFT, Crystal Embedding 
  Dimitrios Pantazis     : SARC Basis sets                               
  Anastasios Papadopoulos: AUTO-CI, single reference methods and gradients 
  Taras Petrenko         : pre 6.0 DFT Hessian and TD-DFT gradient,  ECA, NRVS 
  Petra Pikulova         : Analytic Raman intensities                    
  Peter Pinski           : DLPNO-MP2, DLPNO-MP2 Gradient                 
  Shashank Vittal Rao    : ES-AILFT, MagRelax                            
  Christoph Reimann      : Effective Core Potentials                     
  Marius Retegan         : Local ZFS, SOC                                
  Christoph Riplinger    : Optimizer, TS searches, QM/MM, DLPNO-CCSD(T), (RO)-DLPNO pert. Triples 
  Michael Roemelt        : Original ROCIS implementation, recursive CI coupling coefficients
  Masaaki Saitow         : Open-shell DLPNO-CCSD energy and density      
  Barbara Sandhoefer     : DKH picture change effects                    
  Yorick L. A. Schmerwitz: GMF and freeze-and-release deltaSCF, NEB S-IDPP initial path                    
  Kantharuban Sivalingam : CASSCF convergence/infrastructure, NEVPT2, NEVPT3, NEVPT4(SD), FIC-MRCI and CEPA variants
  Bernardo de Souza      : ESD, SOC TD-DFT                               
  Georgi L. Stoychev     : AutoAux, RI-MP2 NMR, DLPNO-MP2 response, X2C  
  Van Anh Tran           : RI-MP2 g-tensors                              
  Willem Van den Heuvel  : Paramagnetic NMR                              
  Zikuan Wang            : NOTCH, Electric field optimization            
  Frank Wennmohs         : Technical directorship and infrastructure     
  Hang Xu                : AUTO-CI-Response properties                   
                                                                         
[FACCTs GmbH]                                                            
  Markus Bursch, Nicolas Foglia, Miquel Garcia-Rates, Ingolf Harden, Hagen Neugebauer, Anastasios Papadopoulos, 
  Christoph Riplinger, Bernardo de Souza, Georgi L. Stoychev                                                    
                                                                 
  APM, various basis sets, CI-OPT, improved COSX, DLPNO-Multilevel,           
  DOCKER, DRACO, updates on ESD, Fragmentator, GOAT, IRC, LR-CPCM, L-BFGS, MBIS, meta-GGA TD-DFT gradient, ML-optimized integration grids, 
  MM, NACMEs, nearIR, NEB, NEB-TS, NL-DFT gradient (VV10), 2- and 3-layer-ONIOM, interface openCOSMO-RS, QMMM,   
  Crystal-QMMM, RESP, rigid body optimization, SF, symmetry and pop. for TD-DFT, various functionals, SOLVATOR                                   
                                                                         
[Other institutions]                                                     
  V. Asgeirsson          : NEB                                           
  Christoph Bannwarth    : sTDA-DFT, sTD-DFT, PBEh-3c, B97-3c, D3        
  Giovanni Bistoni       : ETS/NOCV, ADLD/ADEX, COVALED                  
  Martin Brehm           : Molecular dynamics                            
  Ronald Cardenas        : ETS/NOCV                                      
  Martina Colucci        : COVALED                                       
  Sebastian Ehlert       : rSCAN, r2SCAN, r2SCAN-3c, D4, dhf basis sets  
  Marvin Friede          : D4 for Fr, Ra, Ac-Lr                          
  Lars Goerigk           : TD-DFT with DH, B97 family of functionals     
  Stefan Grimme          : VdW corrections, initial TS optimization, DFT functionals, gCP, sTDA/sTD-DF 
  Waldemar Hujo          : DFT-NL                                        
  H. Jonsson             : NEB                                           
  Holger Kruse           : gCP                                           
  Marcel Mueller         : wB97X-3c, vDZP basis set                      
  Hagen Neugebauer       : wr2SCAN, Native XTB                           
  Gianluca Regni         : ADLD/ADEX                                     
  Tobias Risthaus        : pre 6.0 range-separated hybrid DFT and stability analysis
  Lukas Wittmann         : regularized MP2, r2SCAN double-hybrids, wr2SCAN        
                                                                         
We gratefully acknowledge several colleagues who have allowed us to      
interface, adapt or use parts of their codes:                            
  Ed Valeev, F. Pavosevic, A. Kumar             : LibInt (2-el integral package), F12 methods 
  Garnet Chan, S. Sharma, J. Yang, R. Olivares  : DMRG                   
  Ulf Ekstrom                                   : XCFun DFT Library      
  Mihaly Kallay                                 : mrcc  (arbitrary order and MRCC methods)
  Frank Weinhold                                : gennbo (NPA and NBO analysis)           
  Simon Mueller                                 : openCOSMO-RS                            
  Christopher J. Cramer and Donald G. Truhlar   : smd solvation model                     
  S Lehtola, MJT Oliveira, MAL Marques          : LibXC Library                           
  Liviu Ungur et al                             : ANISO software                          


 Your calculation uses the libint2 library for the computation of 2-el integrals
 For citations please refer to: http://libint.valeyev.net

 Your ORCA version has been built with support for libXC version: 7.0.0
 For citations please refer to: https://libxc.gitlab.io

 This ORCA versions uses:
   CBLAS   interface :  Fast vector & matrix operations
   LAPACKE interface :  Fast linear algebra routines
   SCALAPACK package :  Parallel linear algebra routines
   Shared memory     :  Shared parallel matrices
   BLAS/LAPACK       :  OpenBLAS 0.3.29  USE64BITINT DYNAMIC_ARCH NO_AFFINITY SkylakeX SINGLE_THREADED
        Core in use  :  SkylakeX
   Copyright (c) 2011-2014, The OpenBLAS Project


  ***********************************
  * Starting time: Thu Mar 12 16:11:47 2026
  * Host name:     c4-21
  * Process ID:    2052815
  * Working dir.:  /tmp/lscratch/avcopan/43559441
  ***********************************

NOTE: MaxCore=9000 MB was set to SCF,MP2,MDCI,CIPSI,MRCI,RASCI and CIS
      => If you want to overwrite this, your respective input block should be placed after the MaxCore statement


***************************************
The coordinates will be read from file: opt.xyz
***************************************


================================================================================

----- Orbital basis set information -----
Your calculation utilizes the basis: cc-pVDZ-F12 

----- AuxC basis set information -----
Your calculation utilizes the auxiliary basis: cc-pVTZ/C 
  Obtained from the EMSL Basis Set Exchange (bse.pnl.gov) Feb. 2017
  H-He, B-F, Al-Ar, Ga-Kr : F. Weigend, A. Kohn, C. Hattig, J. Chem. Phys. 116, 3175 (2002)
             Li-Be, Na-Mg : C. Haettig, Phys. Chem. Chem. Phys. 7, 59 (2005)
                       Ne : C. Haettig, Phys. Chem. Chem. Phys. 7, 59 (2005)
                            F. Weigend, A. Kohn, C. Hattig, J. Chem. Phys. 116, 3175 (2002)
                    Sc-Zn : J. G. Hill, J. A. Platts, J. Chem. Phys. 128, 044104 (2008)

----- CABS information -----
Your calculation utilizes the basis: cc-pVDZ-F12 


                    <<< The CABS basis set will be decontracted >>>

================================================================================
                                        WARNINGS
                       Please study these warnings very carefully!
================================================================================


WARNING: Post HF methods need fully converged wavefunctions
  ===> : Setting SCFConvForced true
         You can overwrite this default with %scf ConvForced false 


WARNING: MDCI localization with Augmented Hessian Foster-Boys
  ===> : Switching off randomization!

WARNING: UseCISUpdate is  only available for RHF calculations...
  ===> : Setting UseCISUpdate = false 

================================================================================
                                       INPUT FILE
================================================================================
NAME = sp.inp
|  1> # 
|  2> % MaxCore 9000
|  3> ! PAL8
|  4> ! uhf ccsd(t)-f12/ri cc-pvdz-f12 cc-pvdz-f12-cabs cc-pvtz/c
|  5> * xyzfile 0 1 opt.xyz
|  6> 
|  7> 
|  8>                          ****END OF INPUT****
================================================================================

                       ****************************
                       * Single Point Calculation *
                       ****************************

---------------------------------
CARTESIAN COORDINATES (ANGSTROEM)
---------------------------------
  O     -2.731009    2.750298   -3.442946
  H     -2.261399    2.174355   -2.836312
  H     -2.117412    2.879543   -4.168928

----------------------------
CARTESIAN COORDINATES (A.U.)
----------------------------
  NO LB      ZA    FRAG     MASS         X           Y           Z
   0 O     8.0000    0    15.999   -5.160858    5.197310   -6.506225
   1 H     1.0000    0     1.008   -4.273425    4.108935   -5.359853
   2 H     1.0000    0     1.008   -4.001329    5.441548   -7.878133

--------------------------------
INTERNAL COORDINATES (ANGSTROEM)
--------------------------------
 O      0   0   0     0.000000000000     0.00000000     0.00000000
 H      1   0   0     0.959295697919     0.00000000     0.00000000
 H      1   2   0     0.959299396937   104.26090201     0.00000000

---------------------------
INTERNAL COORDINATES (A.U.)
---------------------------
 O      0   0   0     0.000000000000     0.00000000     0.00000000
 H      1   0   0     1.812806150516     0.00000000     0.00000000
 H      1   2   0     1.812813140647   104.26090201     0.00000000

---------------------
BASIS SET INFORMATION
---------------------
There are 2 groups of distinct atoms

 Group   1 Type O   : 19s6p2d contracted to 5s5p2d pattern {88111/21111/11}
 Group   2 Type H   : 5s2p contracted to 3s2p pattern {311/11}

Atom   0O    basis set group =>   1
Atom   1H    basis set group =>   2
Atom   2H    basis set group =>   2
---------------------------------
AUXILIARY/C BASIS SET INFORMATION
---------------------------------
There are 2 groups of distinct atoms

 Group   1 Type O   : 8s6p5d3f1g contracted to 8s6p5d3f1g pattern {11111111/111111/11111/111/1}
 Group   2 Type H   : 4s3p2d1f contracted to 4s3p2d1f pattern {1111/111/11/1}

Atom   0O    basis set group =>   1
Atom   1H    basis set group =>   2
Atom   2H    basis set group =>   2
--------------
CABS BASIS SET
--------------
There are 2 groups of distinct atoms

 Group   1 Type O   : 15s10p6d3f1g contracted to 15s10p6d3f1g pattern {111111111111111/1111111111/111111/111/1}
 Group   2 Type H   : 8s5p2d contracted to 8s5p2d pattern {11111111/11111/11}

Atom   0O    basis set group =>   1
Atom   1H    basis set group =>   2
Atom   2H    basis set group =>   2


           ************************************************************
           *        Program running with 8 parallel MPI-processes     *
           *              working on a common directory               *
           ************************************************************
------------------------------------------------------------------------------
                             ORCA STARTUP CALCULATIONS
------------------------------------------------------------------------------
------------------------------------------------------------------------------
                   ___                                                        
                  /   \      - P O W E R E D   B Y -                         
                 /     \                                                     
                 |  |  |   _    _      __       _____    __    __             
                 |  |  |  | |  | |    /  \     |  _  \  |  |  /  |          
                  \  \/   | |  | |   /    \    | | | |  |  | /  /          
                 / \  \   | |__| |  /  /\  \   | |_| |  |  |/  /          
                |  |  |   |  __  | /  /__\  \  |    /   |      \           
                |  |  |   | |  | | |   __   |  |    \   |  |\   \          
                \     /   | |  | | |  |  |  |  | |\  \  |  | \   \       
                 \___/    |_|  |_| |__|  |__|  |_| \__\ |__|  \__/        
                                                                              
                      - O R C A' S   B I G   F R I E N D -                    
                                      &                                       
                       - I N T E G R A L  F E E D E R -                       
                                                                              
 v1 FN, 2020, v2 2021, v3 2022-2024                                           
------------------------------------------------------------------------------


----------------------
SHARK INTEGRAL PACKAGE
----------------------

Number of atoms                             ...      3
Number of basis functions                   ...     54
Number of shells                            ...     28
Maximum angular momentum                    ...      2
Integral batch strategy                     ... SHARK/LIBINT Hybrid
RI-J (if used) integral strategy            ... SPLIT-RIJ (Revised 2003 algorithm where possible)
Printlevel                                  ...      1
Contraction scheme used                     ... PARTIAL GENERAL contraction
Prescreening option                         ... SCHWARTZ
   Thresh                                   ... 1.000e-10
   Tcut                                     ... 1.000e-11
   Tpresel                                  ... 1.000e-11 
Coulomb Range Separation                    ... NOT USED
Exchange Range Separation                   ... NOT USED
Multipole approximations                    ... NOT USED
Finite Nucleus Model                        ... NOT USED
CABS basis                                  ... AVAILABLE
   # of basis functions in CABS             ...    171
   # of shells in CABS                      ...     65
   Maximum angular momentum in CABS         ...      4
F12 Gamma exponent                          ...  0.900000
F12-Geminal                                 ...  6 primitives
l =0 ng=6 ofs=0
   a( 0) =     0.220850853  d( 0)=    -0.314424804 
   a( 1) =     1.004019154  d( 1)=    -0.303695753 
   a( 2) =     3.621217265  d( 2)=    -0.168069685 
   a( 3) =    12.162483048  d( 3)=    -0.098115813 
   a( 4) =    45.855331575  d( 4)=    -0.060246641 
   a( 5) =   254.234600970  d( 5)=    -0.037263542 
Auxiliary Coulomb fitting basis             ... NOT available
Auxiliary J/K fitting basis                 ... NOT available
Auxiliary Correlation fitting basis         ... AVAILABLE
   # of basis functions in Aux-C            ...    141
   # of shells in Aux-C                     ...     43
   Maximum angular momentum in Aux-C        ...      4
Auxiliary 'external' fitting basis          ... NOT available

Checking pre-screening integrals            ... done (  0.0 sec) Dimension = 28
Save PGC pre-screening integrals            ... done (  0.0 sec) Dimension = 28
Calculate PGC overlap integrals             ... done (  0.0 sec) Dimension = 22
Calculating pre-screening integrals (ORCA)  ... done (  0.0 sec) Dimension = 22
Shell pair information
Shell pair cut-off parameter TPreSel        ...   1.0e-11
Total number of shell pairs                 ...       406
Shell pairs after pre-screening             ...       406
Total number of primitive shell pairs       ...       568
Primitive shell pairs kept                  ...       551
          la=0 lb=0:    153 shell pairs
          la=1 lb=0:    153 shell pairs
          la=1 lb=1:     45 shell pairs
          la=2 lb=0:     34 shell pairs
          la=2 lb=1:     18 shell pairs
          la=2 lb=2:      3 shell pairs

Checking whether 4 symmetric matrices of dimension 54 fit in memory
:Max Core in MB      =   9000.00
 MB in use           =      5.84
 MB left             =   8994.16
 MB needed           =      0.05
 Data fit in memory  = YES
Calculating RI/C V-Matrix + Cholesky decomp.... done (  0.0 sec)
Calculating Nuclear repulsion               ... done (  0.0 sec) ENN=      9.175471957429 Eh

Diagonalization of the overlap matrix:
Smallest eigenvalue                        ... 1.686e-03
Time for diagonalization                   ...    0.001 sec
Threshold for overlap eigenvalues          ... 1.000e-07
Number of eigenvalues below threshold      ... 0
Time for construction of square roots      ...    0.001 sec
Total time needed                          ...    0.002 sec

-------------------
DFT GRID GENERATION
-------------------

General Integration Accuracy     IntAcc      ... 4.388
Radial Grid Type                 RadialGrid  ... OptM3 with GC (2021)
Angular Grid (max. ang.)         AngularGrid ... 4 (Lebedev-302)
Angular grid pruning method      GridPruning ... 4 (adaptive)
Weight generation scheme         WeightScheme... mBecke (2022)
Basis function cutoff            BFCut       ... 1.0000e-10
Integration weight cutoff        WCut        ... 1.0000e-14
Partially contracted basis set               ... off
Rotationally invariant grid construction     ... off
Angular grids for H and He will be reduced by one unit
Diffuse basis detected: some atoms will have their outermost
                        angular grid increased by 1.

Total number of grid points                  ...    13084
Total number of batches                      ...      206
Average number of points per batch           ...       63
Average number of grid points per atom       ...     4361

---------------------
SHARK GRID GENERATION
---------------------

General Integration Accuracy     IntAcc      ... 4.388
Radial Grid Type                 RadialGrid  ... OptM3 with GC (2021)
Angular Grid (max. ang.)         AngularGrid ... 4 (Lebedev-302)
Angular grid pruning method      GridPruning ... 4 (adaptive)
Weight generation scheme         WeightScheme... mBecke (2022)
Basis function cutoff            BFCut       ... 1.0000e-10
Integration weight cutoff        WCut        ... 1.0000e-14
Partially contracted basis set               ... off
Rotationally invariant grid construction     ... off
Angular grids for H and He will be reduced by one unit
Diffuse basis detected: some atoms will have their outermost
                        angular grid increased by 1.
Steep s-basis detected: some atoms will have their radial
                        grid points doubled.

Total number of grid points                  ...    19644
Total number of batches                      ...      308
Average number of points per batch           ...       63
Average number of grid points per atom       ...     6548
Grids setup in   0.1 sec
Initializing property integral containers    ... done (  0.0 sec)

SHARK setup successfully completed in   0.3 seconds

Maximum memory used throughout the entire STARTUP-calculation: 20.9 MB


           ************************************************************
           *        Program running with 8 parallel MPI-processes     *
           *              working on a common directory               *
           ************************************************************
-------------------------------------------------------------------------------
                                 ORCA GUESS
                   Start orbitals & Density for SCF / CASSCF
-------------------------------------------------------------------------------

------------
SCF SETTINGS
------------
Hamiltonian:
 Ab initio Hamiltonian  Method          .... Hartree-Fock(GTOs)


General Settings:
 Integral files         IntName         .... sp
 Hartree-Fock type      HFTyp           .... UHF
 Total Charge           Charge          ....    0
 Multiplicity           Mult            ....    1
 Number of Electrons    NEL             ....   10
 Basis Dimension        Dim             ....   48
 Nuclear Repulsion      ENuc            ....      9.1754719574 Eh

Convergence Acceleration:
 AO-DIIS                CNVDIIS         .... on
   Start iteration      DIISMaxIt       ....    12
   Startup error        DIISStart       ....  0.200000
   # of expansion vecs  DIISMaxEq       ....     5
   Bias factor          DIISBfac        ....   1.050
   Max. coefficient     DIISMaxC        ....  10.000
 MO-DIIS                CNVKDIIS        .... off
 Trust-Rad. Augm. Hess. CNVTRAH         .... auto
   Auto Start mean grad. ratio tolernc. ....  1.125000
   Auto Start start iteration           ....    50
   Auto Start num. interpolation iter.  ....    10
   Max. Number of Micro iterations      ....    24
   Max. Number of Macro iterations      .... Maxiter - #DIIS iter
   Number of Davidson start vectors     ....     2
   Converg. threshold    (grad. norm)   ....   5.000e-05
   Grad. Scal. Fac. for Micro threshold ....   0.100
   Minimum threshold for Micro iter.    ....   1.000e-02
   NR start threshold (gradient norm)   ....   1.000e-04
   Initial trust radius                 ....   0.400
   Minimum AH scaling param. (alpha)    ....   1.000
   Maximum AH scaling param. (alpha)    .... 1000.000
   Quad. conv. algorithm                .... NR
   White noise on init. David. guess    .... on
   Maximum white noise                  ....   0.010
   Pseudo random numbers                .... off
   Inactive MOs                         .... canonical
   Orbital update algorithm             .... Taylor
   Preconditioner                       .... Diag
   Full preconditioner red. dimension   ....   250
 SOSCF                 CNVSOSCF           .... on
   Start iteration     SOSCFMaxIt         ....   150
   Startup grad/error  SOSCFStart         ....  0.003300
   Hessian update      SOSCFHessUp        .... L-BFGS
   Autom. constraints  SOSCFAutoConstrain .... off
 Level Shifting         CNVShift        .... on
   Level shift para.    LevelShift      ....    0.2500
   Turn off err/grad.   ShiftErr        ....    0.0010
 Zerner damping         CNVZerner       .... off
 Static damping         CNVDamp         .... on
   Fraction old density DampFac         ....    0.7000
   Max. Damping (<1)    DampMax         ....    0.9800
   Min. Damping (>=0)   DampMin         ....    0.0000
   Turn off err/grad.   DampErr         ....    0.1000

SCF Procedure:
 Maximum # iterations   MaxIter         ....   125
 SCF integral mode      SCFMode         .... Direct
   Integral package                     .... SHARK and LIBINT hybrid scheme
 Reset frequency        DirectResetFreq ....    20
 Integral Threshold     Thresh          ....  1.000e-10 Eh
 Primitive CutOff       TCut            ....  1.000e-11 Eh

Convergence Tolerance:
 Convergence Check Mode ConvCheckMode   .... Total+1el-Energy
 Convergence forced     ConvForced      .... 1
 Energy Change          TolE            ....  1.000e-06 Eh
 1-El. energy change                    ....  1.000e-03 Eh
 Orbital Gradient       TolG            ....  5.000e-05
 Orbital Rotation angle TolX            ....  5.000e-05
 DIIS Error             TolErr          ....  1.000e-06

------------------------------
INITIAL GUESS: MODEL POTENTIAL
------------------------------
Loading Hartree-Fock densities                     ... done
Calculating cut-offs                               ... done
Initializing the effective Hamiltonian             ... done
Setting up the integral package (SHARK)            ... done
Starting the Coulomb interaction                   ... done (   0.0 sec)
Making the grid                                    ... done (   0.0 sec)
Mapping shells                                     ... done
Starting the XC term evaluation                    ... done (   0.0 sec)
Transforming the Hamiltonian                       ... done (   0.0 sec)
Diagonalizing the Hamiltonian                      ... done (   0.0 sec)
Back transforming the eigenvectors                 ... done (   0.0 sec)
Now organizing SCF variables                       ... done
                      ------------------
                      INITIAL GUESS DONE (   0.0 sec)
                      ------------------
             **** ENERGY FILE WAS UPDATED (sp.en.tmp) ****
Finished Guess after   1.6 sec
Maximum memory used throughout the entire GUESS-calculation: 5.9 MB


           ************************************************************
           *        Program running with 8 parallel MPI-processes     *
           *              working on a common directory               *
           ************************************************************

-------------------------------------------------------------------------------------------
                                      ORCA LEAN-SCF
                              memory conserving SCF solver
-------------------------------------------------------------------------------------------

----------------------------------------D-I-I-S--------------------------------------------
Iteration    Energy (Eh)           Delta-E    RMSDP     MaxDP     DIISErr   Damp  Time(sec)
-------------------------------------------------------------------------------------------
               ***  Starting incremental Fock matrix formation  ***
    1    -75.9564913669474180     0.00e+00  4.31e-03  1.76e-02  1.84e-01  0.700   0.0
    2    -75.9971612998928379    -4.07e-02  3.00e-03  1.03e-02  1.09e-01  0.700   0.0
                               ***Turning on AO-DIIS***
    3    -76.0182474804189923    -2.11e-02  1.32e-03  5.24e-03  6.20e-02  0.700   0.0
    4    -76.0309037058970461    -1.27e-02  2.93e-03  1.25e-02  4.28e-02  0.000   0.0
                              *** Initializing SOSCF ***
---------------------------------------S-O-S-C-F--------------------------------------
Iteration    Energy (Eh)           Delta-E    RMSDP     MaxDP     MaxGrad    Time(sec)
--------------------------------------------------------------------------------------
    5    -76.0582981410561842    -2.74e-02  3.75e-04  1.26e-03  2.40e-03     0.0
               *** Restarting incremental Fock matrix formation ***
    6    -76.0583574746490854    -5.93e-05  2.44e-04  1.11e-03  8.78e-04     0.0
    7    -76.0583716099974083    -1.41e-05  1.71e-04  6.12e-04  4.55e-04     0.0
    8    -76.0583747186520611    -3.11e-06  2.26e-05  9.62e-05  1.94e-04     0.0
    9    -76.0583750088198514    -2.90e-07  6.15e-06  3.01e-05  4.30e-05     0.0
                 **** Energy Check signals convergence ****

               *****************************************************
               *                     SUCCESS                       *
               *           SCF CONVERGED AFTER   9 CYCLES          *
               *****************************************************

             **** ENERGY FILE WAS UPDATED (sp.en.tmp) ****

----------------
TOTAL SCF ENERGY
----------------

Total Energy       :        -76.05837501724268 Eh           -2069.65360 eV

Components:
Nuclear Repulsion  :          9.17547195742875 Eh             249.67729 eV
Electronic Energy  :        -85.23384697467144 Eh           -2319.33089 eV
One Electron Energy:       -123.00335129912510 Eh           -3347.09135 eV
Two Electron Energy:         37.76950432445366 Eh            1027.76046 eV

Virial components:
Potential Energy   :       -152.01906011579973 Eh           -4136.64893 eV
Kinetic Energy     :         75.96068509855705 Eh            2066.99533 eV
Virial Ratio       :          2.00128605894693

---------------
SCF CONVERGENCE
---------------

  Last Energy change         ...    2.9017e-07  Tolerance :   1.0000e-06
  Last MAX-Density change    ...    3.0074e-05  Tolerance :   1.0000e-05
  Last RMS-Density change    ...    6.1460e-06  Tolerance :   1.0000e-06
  Last DIIS Error            ...    2.4023e-03  Tolerance :   1.0000e-06
  Last Orbital Gradient      ...    4.3022e-05  Tolerance :   5.0000e-05
  Last Orbital Rotation      ...    3.0049e-05  Tolerance :   5.0000e-05


----------------------
UHF SPIN CONTAMINATION
----------------------

Expectation value of <S**2>     :     0.000000
Ideal value S*(S+1) for S=0.0   :     0.000000
Deviation                       :     0.000000

----------------
ORBITAL ENERGIES
----------------
                 SPIN UP ORBITALS
  NO   OCC          E(Eh)            E(eV) 
   0   1.0000     -20.567555      -559.6716 
   1   1.0000      -1.353113       -36.8201 
   2   1.0000      -0.717012       -19.5109 
   3   1.0000      -0.585408       -15.9298 
   4   1.0000      -0.509083       -13.8529 
   5   0.0000       0.116952         3.1824 
   6   0.0000       0.142836         3.8868 
   7   0.0000       0.171301         4.6613 
   8   0.0000       0.173453         4.7199 
   9   0.0000       0.260752         7.0954 
  10   0.0000       0.290986         7.9181 
  11   0.0000       0.599699        16.3186 
  12   0.0000       0.633795        17.2464 
  13   0.0000       0.674232        18.3468 
  14   0.0000       0.718170        19.5424 
  15   0.0000       0.726074        19.7575 

                 SPIN DOWN ORBITALS
  NO   OCC          E(Eh)            E(eV) 
   0   1.0000     -20.567555      -559.6716 
   1   1.0000      -1.353113       -36.8201 
   2   1.0000      -0.717012       -19.5109 
   3   1.0000      -0.585408       -15.9298 
   4   1.0000      -0.509083       -13.8529 
   5   0.0000       0.116952         3.1824 
   6   0.0000       0.142836         3.8868 
   7   0.0000       0.171301         4.6613 
   8   0.0000       0.173453         4.7199 
   9   0.0000       0.260752         7.0954 
  10   0.0000       0.290986         7.9181 
  11   0.0000       0.599699        16.3186 
  12   0.0000       0.633795        17.2464 
  13   0.0000       0.674232        18.3468 
  14   0.0000       0.718170        19.5424 
  15   0.0000       0.726074        19.7575 
*Only the first 10 virtual orbitals were printed.

                    ********************************
                    * MULLIKEN POPULATION ANALYSIS *
                    ********************************

--------------------------------------------
MULLIKEN ATOMIC CHARGES AND SPIN POPULATIONS
--------------------------------------------
   0 O :   -0.498997    0.000000
   1 H :    0.249498    0.000000
   2 H :    0.249499    0.000000
Sum of atomic charges         :    0.0000000
Sum of atomic spin populations:    0.0000000

-----------------------------------------------------
MULLIKEN REDUCED ORBITAL CHARGES AND SPIN POPULATIONS
-----------------------------------------------------
CHARGE
  0 O s       :     3.823958  s :     3.823958
      pz      :     1.384125  p :     4.656734
      px      :     1.558639
      py      :     1.713970
      dz2     :     0.000068  d :     0.018305
      dxz     :     0.008946
      dyz     :     0.001167
      dx2y2   :     0.003485
      dxy     :     0.004640

  1 H s       :     0.675270  s :     0.675270
      pz      :     0.024853  p :     0.075232
      px      :     0.021787
      py      :     0.028592

  2 H s       :     0.675269  s :     0.675269
      pz      :     0.023330  p :     0.075232
      px      :     0.020294
      py      :     0.031608


SPIN
  0 O s       :     0.000000  s :     0.000000
      pz      :     0.000000  p :     0.000000
      px      :     0.000000
      py      :     0.000000
      dz2     :     0.000000  d :     0.000000
      dxz     :     0.000000
      dyz     :     0.000000
      dx2y2   :     0.000000
      dxy     :     0.000000

  1 H s       :     0.000000  s :     0.000000
      pz      :     0.000000  p :     0.000000
      px      :     0.000000
      py      :     0.000000

  2 H s       :     0.000000  s :     0.000000
      pz      :     0.000000  p :     0.000000
      px      :     0.000000
      py      :     0.000000



                     *******************************
                     * LOEWDIN POPULATION ANALYSIS *
                     *******************************

-------------------------------------------
LOEWDIN ATOMIC CHARGES AND SPIN POPULATIONS
-------------------------------------------
   0 O :    0.100557    0.000000
   1 H :   -0.050281    0.000000
   2 H :   -0.050276    0.000000

----------------------------------------------------
LOEWDIN REDUCED ORBITAL CHARGES AND SPIN POPULATIONS
----------------------------------------------------
CHARGE
  0 O s       :     3.279230  s :     3.279230
      pz      :     1.385656  p :     4.579378
      px      :     1.570596
      py      :     1.623126
      dz2     :     0.002075  d :     0.040835
      dxz     :     0.021779
      dyz     :     0.007429
      dx2y2   :     0.003173
      dxy     :     0.006380

  1 H s       :     0.661006  s :     0.661006
      pz      :     0.116138  p :     0.389275
      px      :     0.130336
      py      :     0.142800

  2 H s       :     0.661005  s :     0.661005
      pz      :     0.134052  p :     0.389271
      px      :     0.147903
      py      :     0.107315


SPIN
  0 O s       :     0.000000  s :     0.000000
      pz      :     0.000000  p :     0.000000
      px      :     0.000000
      py      :     0.000000
      dz2     :     0.000000  d :     0.000000
      dxz     :     0.000000
      dyz     :     0.000000
      dx2y2   :     0.000000
      dxy     :     0.000000

  1 H s       :     0.000000  s :     0.000000
      pz      :     0.000000  p :     0.000000
      px      :     0.000000
      py      :     0.000000

  2 H s       :     0.000000  s :     0.000000
      pz      :     0.000000  p :     0.000000
      px      :     0.000000
      py      :     0.000000



                      *****************************
                      * MAYER POPULATION ANALYSIS *
                      *****************************

  NA   - Mulliken gross atomic population
  ZA   - Total nuclear charge
  QA   - Mulliken gross atomic charge
  VA   - Mayer's total valence
  BVA  - Mayer's bonded valence
  FA   - Mayer's free valence

  ATOM       NA         ZA         QA         VA         BVA        FA
  0 O      8.4990     8.0000    -0.4990     1.9169     1.9169     0.0000
  1 H      0.7505     1.0000     0.2495     0.9749     0.9749     0.0000
  2 H      0.7505     1.0000     0.2495     0.9749     0.9749    -0.0000

  Mayer bond orders larger than 0.100000
B(  0-O ,  1-H ) :   0.9585 B(  0-O ,  2-H ) :   0.9585 

-------
TIMINGS
-------

Total SCF time: 0 days 0 hours 0 min 1 sec 

Total time                  ....       1.873 sec
Sum of individual times     ....       1.855 sec  ( 99.0%)

SCF preparation             ....       1.630 sec  ( 87.0%)
Fock matrix formation       ....       0.092 sec  (  4.9%)
  Startup                   ....       0.004 sec  (  4.4% of F)
  Coulomb+Exchange Fock     ....       0.084 sec  ( 91.6% of F)
Diagonalization             ....       0.000 sec  (  0.0%)
Density matrix formation    ....       0.020 sec  (  1.1%)
Total Energy calculation    ....       0.011 sec  (  0.6%)
Population analysis         ....       0.009 sec  (  0.5%)
Orbital Transformation      ....       0.014 sec  (  0.7%)
Orbital Orthonormalization  ....       0.000 sec  (  0.0%)
DIIS solution               ....       0.046 sec  (  2.5%)
SOSCF solution              ....       0.032 sec  (  1.7%)
Finished LeanSCF after   1.9 sec

Maximum memory used throughout the entire LEANSCF-calculation: 7.8 MB


           ************************************************************
           *        Program running with 8 parallel MPI-processes     *
           *              working on a common directory               *
           ************************************************************

------------------------------------------------------------------------------
                         ORCA PROPERTY INTEGRAL CALCULATIONS
------------------------------------------------------------------------------

GBWName                                   ... sp.gbw
Number of atoms                           ...      3
Number of basis functions                 ...     54
Max core memory                           ...   9000 MB

Dipole integrals                          ... YES
Quadrupole integrals                      ...  NO
Linear momentum integrals                 ... YES
Angular momentum integrals                ... YES
Higher moments length integrals           ...  NO
Higher moments velocity integrals         ...  NO
Kinetic energy integrals                  ...  NO
GIAO right hand sides                     ...  NO
GIAO dipole derivative integrals          ...  NO
SOC integrals                             ...  NO
EPR diamagnetic integrals (GIAO)          ...  NO
EPR gauge integrals                       ...  NO
Field gradient integrals                  ...  NO (   0 nuclei)
Spin-dipole/Fermi contact integrals       ...  NO (   0 nuclei)
Contact density integrals                 ...  NO (   0 nuclei)
Nucleus-orbit integrals                   ...  NO (   0 nuclei)
Geometric perturbations                   ...  NO (   3 nuclei)

Choice of electric origin   ... Center of mass
Position of electric origin ... ( -5.0463,  5.1501, -6.5188) 
Choice of magnetic origin   ... GIAO
Position of magnetic origin ... (  0.0000,  0.0000,  0.0000) 

Calculating integrals                     ... Electric Dipole (Length)     done (  0.0 sec)
Calculating integrals                     ... Linear Momentum              done (  0.0 sec)
Calculating integrals                     ... Angular Momentum  (ElOri)    done (  0.0 sec)

Property integrals calculated in   0.0 sec

Maximum memory used throughout the entire PROPINT-calculation: 6.0 MB


           ************************************************************
           *        Program running with 8 parallel MPI-processes     *
           *              working on a common directory               *
           ************************************************************


--------------------------------------------------------------------------------
                             ORCA-MATRIX DRIVEN CI
--------------------------------------------------------------------------------

--------------------------------
AUTOMATIC CHOICE OF INCORE LEVEL
--------------------------------

Memory available                           ...   4500.00 MB
Memory needed for S+T                      ...      0.42 MB
Memory needed for J+K                      ...      0.85 MB
Memory needed for DIIS                     ...      5.92 MB
Memory needed for 3-ext                    ...      2.43 MB
Memory needed for 4-ext                    ...     13.34 MB
Memory needed for triples                  ...      3.03 MB
 -> Final InCoreLevel    ... 5
 -> check shows that triples correction can be computed


Wavefunction type
-----------------
Correlation treatment                      ...      CCSD     
Single excitations                         ... ON
Orbital optimization                       ... OFF
Calculation of Z vector                    ... OFF
Calculation of Brueckner orbitals          ... OFF
Perturbative triple excitations            ... ON
Calculation of F12 correction              ... ON
   Using RI for F12 correction             ... ON
Frozen core treatment                      ... chemical core (2 el)
Reference Wavefunction                     ... UHF
  Alpha-MOs occ    :     1 ...    4 (  4 MO's/  4 electrons)
  Beta-MOs occ     :     1 ...    4 (  4 MO's/  4 electrons)
  Alpha-MOs virt   :     5 ...   47 ( 43 MO's              )
  Beta-MOs virt    :     5 ...   47 ( 43 MO's              )
Number of AO's                             ...     48
Number of electrons                        ...     10
Number of correlated electrons             ...      8

Algorithmic settings
--------------------
Integral transformation                    ... Separate K and J transformations
K(C) Formation                             ... AO-EXCHANGE STORED
Maximum number of iterations               ...        50
Convergence tolerance (max. residuum)      ... 2.500e-05
Level shift for amplitude update           ... 2.000e-01
Maximum number of DIIS vectors             ...         7
DIIS turned on at iteration                ...         0
Damping before turning on DIIS             ...     0.500
Damping after turning on DIIS              ...     0.000
Pair specific amplitude update             ... OFF
Natural orbital iterations                 ... OFF
Perturbative natural orbital generation    ... OFF
Printlevel                                 ... 2

Memory handling:
----------------
Maximum memory for working arrays          ...   4500 MB
Data storage in matrix containers          ... UNCOMPRESSED
Data type for integral storage             ... DOUBLE
In-Core Storage of quantities:
   Amplitudes+Sigma Vector      ... YES
   J+K operators                ... YES
   DIIS vectors                 ... YES
   3-external integrals         ... YES
   4-external integrals         ... YES


Initializing the integral package          ... done
Warning: reference  - re-canonicalizations have been set to INT 1 VIRT 1
Fock densities were made 
Making Fock matrix and reference energy:

--------------------------
UNRESTRICTED FOCK OPERATOR
--------------------------

Recanonicalizing the internal orbitals
Recanonicalizing the virtual orbitals
Storing new orbitals
Time needed for Fock operator              ...            0.021 sec
Reference energy                           ...    -76.058375017

-------------------------
SHARK HALF TRANSFORMATION
-------------------------

Number of basis functions                ...     48
Number of operators                      ...      2
   Operator  0:    1-   4

   Operator  1:    1-   4

Integral generator used                  ... SHARK
Contraction scheme used                  ... SEGMENTED CONTRACTION
MaxCore in resort                        ...   9000 MB

Half transformed integrals for op=   0   ... sp.SHARK_MNPQ0.tmp
Resorted half transformed integrals      ... sp._PQMN_0.tmp
Half transformed integrals for op=   1   ... sp.SHARK_MNPQ1.tmp
Resorted half transformed integrals      ... sp._PQMN_1.tmp
Starting integral generation + half trafo... 
Half trafo (segmented) done. Total time =  0.0 sec. integrals=  0.0 sec trafo=  0.0 sec
Starting integral resorting              ... done (  0.0 sec)

SHARK half integral transformation done. Total time =  0.0 sec.

----------------------------------
J-TRAFO SECOND HALF TRANSFORMATION
----------------------------------

Generate (ij|kl)                        ... NO
Generate (ij|ka)                        ... YES
Generate (ij|ab)                        ... YES
Generate (ia|bc)                        ... NO
Generate (ab|cd)                        ... NO
Generate (pq|rs)                        ... NO

Number of operators                     ... 2
   Operator 0                           ...    1-   4 to    5-  47
   PQMN-Container name                  ... sp._PQMN_0.tmp
   IJKA-Container name    op=0,0        ... sp._IJKA_0.tmp
   IJAB-Container name    op=0,0        ... sp._IJAB_0.tmp
   IJKA-Container name    op=0,1        ... sp._IJKA_2.tmp
   IJAB-Container name    op=0,1        ... sp._IJAB_2.tmp
   Operator 1                           ...    1-   4 to    5-  47
   PQMN-Container name                  ... sp._PQMN_1.tmp
   IJKA-Container name    op=1,0        ... sp._IJKA_3.tmp
   IJAB-Container name    op=1,0        ... sp._IJAB_3.tmp
   IJKA-Container name    op=1,1        ... sp._IJKA_1.tmp
   IJAB-Container name    op=1,1        ... sp._IJAB_1.tmp

Starting integral transformations       ... done
Completed Coulomb integral formation in   0.0 sec


-------------------------
SHARK HALF TRANSFORMATION (Exchange order)
-------------------------

Number of basis functions                   ...     48
Number of operators                         ...      2
   Operator  0:    1-   4 (p-index in (p*|q*))
   Operator  0:    1-  47 (q-index in (p*|q*)
   Operator  1:    1-   4 (p-index in (p*|q*))
   Operator  1:    1-  47 (q-index in (p*|q*)
Integral generator used                     ... SHARK
Contraction scheme used                     ... SEGMENTED CONTRACTION
MaxCore in resort                           ...   9000 MB

Half transformed integrals for op=   0      ... sp.SHARK_MNPQ0.tmp
Resorted half transformed integrals         ... sp._PMQN_0.tmp
Half transformed integrals for op=   1      ... sp.SHARK_MNPQ1.tmp
Resorted half transformed integrals         ... sp._PMQN_1.tmp
Half transformed integrals for op=0/1       ... sp.SHARK_MNPQ01.tmp
Resorted half transformed integrals         ... sp._PMQN_2.tmp
Half transformed integrals for op=1/0       ... sp.SHARK_MNPQ10.tmp
Resorted half transformed integrals         ... sp._PMQN_3.tmp

Half trafo (segmented) done. Total time =  0.1 sec. integrals=  0.0 sec trafo=  0.0 sec

----------------------
SHARK INTEGRAL SORTING (Exchange)
----------------------

Input container                             ... sp.SHARK_MNPQ0.tmp
Output container                            ... sp._PMQN_0.tmp
Range of AO-indices                         ...    0 -   47
Range of bra indices i                      ...    1 -    4
Range of ket indices j                      ...    1 -   47
Symmetric i,j range                         ... NO
Number of (i,j) pairs generated             ...  188
Max Core memory in MB                       ...   9000

Available core memory in MB                 ...   8969.61
MB needed for one item                      ...      0.02
Fixed MB needed                             ...      0.00
Number of items                             ...        24
Number of batches                           ...         1
Items treated per batch                     ...        24
Batch   0                                   ...      0-    23 (    24)
   => Closing output file and leaving

----------------------
SHARK INTEGRAL SORTING (Exchange)
----------------------

Input container                             ... sp.SHARK_MNPQ1.tmp
Output container                            ... sp._PMQN_1.tmp
Range of AO-indices                         ...    0 -   47
Range of bra indices i                      ...    1 -    4
Range of ket indices j                      ...    1 -   47
Symmetric i,j range                         ... NO
Number of (i,j) pairs generated             ...  188
Max Core memory in MB                       ...   9000

Available core memory in MB                 ...   8969.64
MB needed for one item                      ...      0.02
Fixed MB needed                             ...      0.00
Number of items                             ...        24
Number of batches                           ...         1
Items treated per batch                     ...        24
Batch   0                                   ...      0-    23 (    24)
   => Closing output file and leaving

----------------------
SHARK INTEGRAL SORTING (Exchange)
----------------------

Input container                             ... sp.SHARK_MNPQ01.tmp
Output container                            ... sp._PMQN_2.tmp
Range of AO-indices                         ...    0 -   47
Range of bra indices i                      ...    1 -    4
Range of ket indices j                      ...    1 -   47
Symmetric i,j range                         ... NO
Number of (i,j) pairs generated             ...  188
Max Core memory in MB                       ...   9000

Available core memory in MB                 ...   8969.66
MB needed for one item                      ...      0.02
Fixed MB needed                             ...      0.00
Number of items                             ...        24
Number of batches                           ...         1
Items treated per batch                     ...        24
Batch   0                                   ...      0-    23 (    24)
   => Closing output file and leaving

----------------------
SHARK INTEGRAL SORTING (Exchange)
----------------------

Input container                             ... sp.SHARK_MNPQ10.tmp
Output container                            ... sp._PMQN_3.tmp
Range of AO-indices                         ...    0 -   47
Range of bra indices i                      ...    1 -    4
Range of ket indices j                      ...    1 -   47
Symmetric i,j range                         ... NO
Number of (i,j) pairs generated             ...  188
Max Core memory in MB                       ...   9000

Available core memory in MB                 ...   8969.69
MB needed for one item                      ...      0.02
Fixed MB needed                             ...      0.00
Number of items                             ...        24
Number of batches                           ...         1
Items treated per batch                     ...        24
Batch   0                                   ...      0-    23 (    24)
   => Closing output file and leaving
done (  0.1 sec)

SHARK half integral transformation done. Total time =  0.1 sec.

----------------------------------
K-TRAFO SECOND HALF TRANSFORMATION
----------------------------------

Generate (ik|jl)                        ... YES
Generate (ik|ja)                        ... YES
Generate (ia|jb)                        ... YES
Generate (ib|ac)                        ... YES
Generate (ac|bd)                        ... NO
Generate (pr|qs)                        ... NO

Number of operators                     ... 2
   Operator 0                           ...    1-   4 to    5-  47
   Operator 1                           ...    1-   4 to    5-  47

Starting integral transformations       ... done
Completed Exchange integral formation in   0.0 sec


------------------------------
Initializing F12 data (SHARK)
------------------------------

Mapping basis set                  ... done
Dimension of the orbital basis set  = 48
Dimension of the CABS basis set     = 171
Dimension of the AUX basis set      = 141
Threshold for CABS orthogonalization = 1.000e-08
Test shows that OBS-bases are identical for ORCA and SHARK (good)
Test shows that CABS-bases are identical for ORCA and SHARK (good)
Will use an exponential correlation factor -Exp(-gamma r12)/gamma (gamma= 0.900) fit to 6 Gaussians 
Correlation factor:   
  NGauss  :          6      
  Gaussian expansion: 
    a( 0)=    0.1948458954898069  d( 0)=   -0.3837757042467722 
    a( 1)=    0.9387038354476187  d( 1)=   -0.3334018173527373 
    a( 2)=    3.4610351718196344  d( 2)=   -0.1753946778698117 
    a( 3)=   11.7049811259564009  d( 3)=   -0.1006409547412648 
    a( 4)=   44.2276114110074730  d( 4)=   -0.0614475918190023 
    a( 5)=  245.3721697105246733  d( 5)=   -0.0379425511812079 
Calculating one-electron matrices                       ... (SHARK)done (      0.0 sec)
Calculating pre-screening matrices:                     ... 
     (LIBINT-0)       .... 1/r12 done          (      0.1 sec)
     (LIBINT-1)       .... f12/r12 done        (      0.0 sec)
     (LIBINT-2)       .... f12 done            (      0.0 sec)
     (LIBINT-3)       .... f12^2 done          (      0.0 sec)
     (LIBINT-4)       .... [f12,[T1,f12]] done (      0.0 sec)
                                                        ... done (      0.3 sec)
Making CABS spaces                                      ... done (      0.0 sec)
Calculating 2-index 2-center F12 integrals              ... 
Two index explicit correlation integrals  op=0          ...(SHARK-0) done (      0.0 sec)  Metric   done (      0.0 sec)
Two index explicit correlation integrals  op=1          ...(SHARK-1) done (      0.0 sec)  Metric   done (      0.0 sec)
Two index explicit correlation integrals  op=2          ...(SHARK-2) done (      0.0 sec)  Metric   done (      0.0 sec)
Two index explicit correlation integrals  op=3          ...(SHARK-3) done (      0.0 sec)  Metric   done (      0.0 sec)
Two index explicit correlation integrals  op=4          ...(SHARK-4) done (      0.0 sec)  Metric   done (      0.0 sec)
                                                                     done (      0.0 sec)

-----------------------
SPIN UNRESTRICTED GUESS
-----------------------

Spin-components of the MP2 energy:
EMP2(aa)=     -0.030427669
EMP2(bb)=     -0.030427669
EMP2(ab)=     -0.180452432

Initial guess performed in     0.003 sec
E(0)                                       ...    -76.058375017
E(MP2)                                     ...     -0.241307771
Initial E(tot)                             ...    -76.299682789
<T|T>                                      ...      0.060214389
Number of pairs included                   ... 28

------------------------------------------------
                  UHF COUPLED CLUSTER ITERATIONS
------------------------------------------------

Number of amplitudes to be optimized       ...        40844

Iter       E(tot)           E(Corr)          Delta-E          Residual     Time      <S|S>**1/2
  0    -76.299682789     -0.241307772     -0.000000001      0.022331875    0.09      0.000016476
                           *** Turning on DIIS ***
  1    -76.299080936     -0.240705919      0.000601853      0.003526206    0.07      0.020982546
  2    -76.303636408     -0.245261391     -0.004555472      0.001951048    0.07      0.024523765
  3    -76.304762840     -0.246387823     -0.001126432      0.000695352    0.07      0.028246763
  4    -76.304945728     -0.246570711     -0.000182888      0.000280305    0.07      0.029519384
  5    -76.304956334     -0.246581317     -0.000010606      0.000097923    0.07      0.029927294
  6    -76.304961907     -0.246586889     -0.000005573      0.000032842    0.07      0.030080037
  7    -76.304961930     -0.246586912     -0.000000023      0.000005535    0.07      0.030134979
               --- The Coupled-Cluster iterations have converged ---
--------------------
CC F12/RI CORRECTION
--------------------

Doing density matrix                                    ... done (      0.0 sec)
Calculating Coulomb operators
       .... OBS/OBS done        (      0.0 sec, SHARK-SC)
       .... CABS/OBS done       (      0.1 sec, LIBINT  )
       .... CABS/CABS done      (      0.1 sec, LIBINT  )
Calculating Exchange operators
       .... OBS/OBS done        (      0.0 sec, LIBINT  )
       .... CABS/OBS done       (      0.1 sec, LIBINT  )
       .... CABS/CABS done      (      0.2 sec, LIBINT  )
       .... exchange build done (      0.4 sec)
Completing Fock operators                               ... done (      0.0 sec)
Entering three index integral routine
Three index transformation (OBS,OBS/AUX) for  op=0      ... (SHARK ) done (      0.0 sec)
Three index transformation (OBS,CABS/AUX) for op=0      ... (LIBINT) done (      0.1 sec)
Three index transformation (OBS,OBS/AUX) for  op=1      ... (SHARK ) done (      0.0 sec)
Three index transformation (OBS,CABS/AUX) for op=1      ... (LIBINT) done (      0.1 sec)
Three index transformation (OBS,OBS/AUX) for  op=2      ... (SHARK ) done (      0.0 sec)
Three index transformation (OBS,CABS/AUX) for op=2      ... (LIBINT) done (      0.1 sec)
Three index transformation (OBS,OBS/AUX) for  op=3      ... (SHARK ) done (      0.0 sec)
Three index transformation (OBS,CABS/AUX) for op=3      ... (LIBINT) done (      0.1 sec)
Three index transformation (OBS,OBS/AUX) for  op=4      ... (SHARK ) done (      0.0 sec)
Three index transformation (OBS,CABS/AUX) for op=4      ... (LIBINT) done (      0.1 sec)
Three index transformation (OBS_F,OBS/AUX) for  op=2    ... (LIBINT) done (      0.1 sec)
Three index transformation (OBS_F,CABS/AUX) for op=2    ... (SHARK ) done (      0.1 sec)
Recalculating the K(C) operators (Opt=   AOX)           ... done (      0.0 sec)
Calculating F12 intermediates (incore)                  ... done (      0.0 sec)
     Startup integrals           ...     0.004 sec
     OBS/OBS integrals           ...     0.002 sec
     CABS/OBS integrals          ...     0.005 sec
     CABS/CABS integrals         ...     0.001 sec
     Vij intermediate            ...     0.000 sec
     Xij intermediate            ...     0.000 sec
     Bij intermediate            ...     0.011 sec
     BS-tilde ij intermediate    ...     0.000 sec
     Vbar-ij intermediate        ...     0.001 sec
     Hartree-Fock correction     ...     0.001 sec
Calculating correlation correction                      ... done (    0.001 sec)

F12 correction                   :  -0.039628727625
Hartree-Fock correction          :  -0.003462526991
Sum of the two                   :  -0.043091254615
Total time for F12 correction    :     1.176 sec
  .... cleaning up and leaving CC-F12/RI

----------------------
COUPLED CLUSTER ENERGY
----------------------

Uncorrected 0th order energy               ...    -76.058375017
F12-HF basis set correction                ...     -0.003462527
Corrected 0th order energy                 ...    -76.061837544

Uncorrected correlation energy             ...     -0.246586912
F12-correction to the correlation energy   ...     -0.039628728
Final F12 correlation energy               ...     -0.286215640

E(TOT)-before F12 corrections              ...    -76.304961930
E(TOT)-after HF correction                 ...    -76.308424457
E(TOT)-after all F12 corrections           ...    -76.348053184

Singles norm <S|S>**1/2                    ...      0.030134979 ( 0.015067490, 0.015067490)  
T1 diagnostic                              ...      0.010654324                              

------------------
LARGEST AMPLITUDES
------------------
   4a-> 19a   4b-> 19b       0.034061
   2a-> 12a   2b-> 12b       0.025664
   4a->  7a   4b-> 19b       0.020590
   4a-> 19a   4b->  7b       0.020590
   4b->  7b  -1b-> -1b       0.019920
   4a->  7a  -1a-> -1a       0.019920
   2a-> 12a   2b->  9b       0.018614
   2a->  9a   2b-> 12b       0.018614
   3a-> 12a   3b-> 12b       0.018008
   2a->  9a   2b->  9b       0.017681
   4a-> 22a   4b-> 22b       0.016900
   4a->  7a   4b->  7b       0.016621
   2a-> 16a   2b-> 16b       0.016026
   2a-> 12a   2b-> 21b       0.015845
   2a-> 21a   2b-> 12b       0.015845
   4a-> 19a   2b-> 16b       0.015461

----------------------
UHF TRIPLES CORRECTION (Algorithm 1)
----------------------

Multiplier for the singles contribution    ...      1.000000000

SPIN-CASE Alpha-Alpha-Alpha:
10% done
20% done
30% done
40% done
50% done
60% done
70% done
80% done
90% done


SPIN-CASE Beta-Beta-Beta:
10% done
20% done
30% done
40% done
50% done
60% done
70% done
80% done
90% done


SPIN-CASE Alpha-Alpha-Beta:
10% done
20% done
30% done
40% done
50% done
60% done
70% done
80% done
90% done


SPIN-CASE Beta-Beta-Alpha:
10% done
20% done
30% done
40% done
50% done
60% done
70% done
80% done
90% done


Triples Correction (T)                     ...     -0.007097103
    alpha-alpha-alpha ... -0.000154385 (  2.2%)
    alpha-alpha-beta  ... -0.003394167 ( 47.8%)
    alpha-beta -beta  ... -0.003394167 ( 47.8%)
    beta -beta -beta  ... -0.000154385 (  2.2%)
Scaling of triples based on CCSD energies (Peterson et al. Molecular Physics 113, 1551 (2015))
E(T*) = f*E(T) where f = E(F12-CCSD)/E(CCSD) 
f = CCSD (with F12)/ CCSD (without F12)    ...      1.160708966
Scaled triples correction (T)              ...     -0.008237672

Final correlation energy (without F12)     ...     -0.253684016
Final correlation energy (with F12)        ...     -0.293312743
Final correlation energy (CCSD scaled (T)) ...     -0.294453312
F12-E(CCSD)                                ...    -76.348053184
F12-E(CCSD(T))                             ...    -76.355150288
F12-ECCSD(T) with (T) scaled through CCSD  ...    -76.356290856



        !!!!!!!!!!!!!!!!!!!!!!!!!!!!!!!!!!!!!!!!!!!!!!!!!!!!!!!!!!!!!!!!!!!!!!!!!! 
        !  Warning: Densities are linearized densities                           !
        !!!!!!!!!!!!!!!!!!!!!!!!!!!!!!!!!!!!!!!!!!!!!!!!!!!!!!!!!!!!!!!!!!!!!!!!!! 

NORM  =      1.066370400 sqrt=     1.032652119
W(HF) =      0.937760463
------------------------------------------------------------------------------
                           ORCA POPULATION ANALYSIS
------------------------------------------------------------------------------
Input electron density              ... sp.mdcip
Input spin density                  ... sp.mdcir
BaseName (.gbw .S,...)              ... sp

                    ********************************
                    * MULLIKEN POPULATION ANALYSIS *
                    ********************************

------------------------------------------
MULLIKEN ATOMIC CHARGES AND SPIN DENSITIES
------------------------------------------
   0 O :   -0.448258    0.000000
   1 H :    0.224129   -0.000000
   2 H :    0.224129   -0.000000
Sum of atomic charges       :    0.0000000
Sum of atomic spin densities:    0.0000000

---------------------------------------------------
MULLIKEN REDUCED ORBITAL CHARGES AND SPIN DENSITIES
---------------------------------------------------
CHARGE
  0 O s       :     3.812060  s :     3.812060
      pz      :     1.370414  p :     4.590163
      px      :     1.530514
      py      :     1.689235
      dz2     :     0.006046  d :     0.046035
      dxz     :     0.013560
      dyz     :     0.006872
      dx2y2   :     0.009318
      dxy     :     0.010239
  1 H s       :     0.686498  s :     0.686498
      pz      :     0.027357  p :     0.089373
      px      :     0.027589
      py      :     0.034427
  2 H s       :     0.686498  s :     0.686498
      pz      :     0.025075  p :     0.089373
      px      :     0.025351
      py      :     0.038946

SPIN
  0 O s       :     0.000000  s :     0.000000
      pz      :     0.000000  p :     0.000000
      px      :     0.000000
      py      :     0.000000
      dz2     :     0.000000  d :     0.000000
      dxz     :    -0.000000
      dyz     :     0.000000
      dx2y2   :     0.000000
      dxy     :    -0.000000
  1 H s       :    -0.000000  s :    -0.000000
      pz      :    -0.000000  p :     0.000000
      px      :     0.000000
      py      :     0.000000
  2 H s       :    -0.000000  s :    -0.000000
      pz      :    -0.000000  p :     0.000000
      px      :     0.000000
      py      :    -0.000000


                     *******************************
                     * LOEWDIN POPULATION ANALYSIS *
                     *******************************

-----------------------------------------
LOEWDIN ATOMIC CHARGES AND SPIN DENSITIES
-----------------------------------------
   0 O :    0.118409    0.000000
   1 H :   -0.059207   -0.000000
   2 H :   -0.059202   -0.000000

--------------------------------------------------
LOEWDIN REDUCED ORBITAL CHARGES AND SPIN DENSITIES
--------------------------------------------------
CHARGE
  0 O s       :     3.277652  s :     3.277652
      pz      :     1.376435  p :     4.532729
      px      :     1.552001
      py      :     1.604292
      dz2     :     0.007743  d :     0.071211
      dxz     :     0.028137
      dyz     :     0.013635
      dx2y2   :     0.009165
      dxy     :     0.012531
  1 H s       :     0.659927  s :     0.659927
      pz      :     0.117051  p :     0.399279
      px      :     0.134810
      py      :     0.147418
  2 H s       :     0.659926  s :     0.659926
      pz      :     0.134904  p :     0.399276
      px      :     0.152317
      py      :     0.112055

SPIN
  0 O s       :     0.000000  s :     0.000000
      pz      :     0.000000  p :     0.000000
      px      :     0.000000
      py      :     0.000000
      dz2     :    -0.000000  d :    -0.000000
      dxz     :    -0.000000
      dyz     :    -0.000000
      dx2y2   :     0.000000
      dxy     :    -0.000000
  1 H s       :    -0.000000  s :    -0.000000
      pz      :     0.000000  p :     0.000000
      px      :    -0.000000
      py      :     0.000000
  2 H s       :    -0.000000  s :    -0.000000
      pz      :     0.000000  p :    -0.000000
      px      :    -0.000000
      py      :    -0.000000


                      *****************************
                      * MAYER POPULATION ANALYSIS *
                      *****************************

  NA   - Mulliken gross atomic population
  ZA   - Total nuclear charge
  QA   - Mulliken gross atomic charge
  VA   - Mayer's total valence
  BVA  - Mayer's bonded valence
  FA   - Mayer's free valence

  ATOM       NA         ZA         QA         VA         BVA        FA
  0 O      8.4483     8.0000    -0.4483     2.2435     1.8618     0.3816
  1 H      0.7759     1.0000     0.2241     1.0151     0.9508     0.0643
  2 H      0.7759     1.0000     0.2241     1.0151     0.9508     0.0643

  Mayer bond orders larger than 0.100000
B(  0-O ,  1-H ) :   0.9309 B(  0-O ,  2-H ) :   0.9309 



--------------------------------------------------------------------------------
                                    TIMINGS
--------------------------------------------------------------------------------


Total execution time                   ...        2.800 sec

Fock Matrix Formation                  ...        0.021 sec (  0.7%)
Initial Guess                          ...        0.003 sec (  0.1%)
DIIS Solver                            ...        0.015 sec (  0.5%)
State Vector Update                    ...        0.001 sec (  0.0%)
Sigma-vector construction              ...        0.563 sec ( 20.1%)
  <0|H|D>                              ...        0.001 sec (  0.3% of sigma)
  <D|H|D>(2-ext)                       ...        0.019 sec (  3.3% of sigma)
  <D|H|D>(4-ext)                       ...        0.226 sec ( 40.2% of sigma)
  <S|H|0>                              ...        0.019 sec (  3.5% of sigma)
  <S|H|D>(1-ext)                       ...        0.001 sec (  0.3% of sigma)
  <D|H|S>(1-ext)                       ...        0.008 sec (  1.4% of sigma)
  Fock-dressing                        ...        0.116 sec ( 20.7% of sigma)
  (ik|jl)-dressing                     ...        0.037 sec (  6.7% of sigma)
  (ij|ab),(ia|jb)-dressing             ...        0.105 sec ( 18.7% of sigma)
  Pair energies                        ...        0.002 sec (  0.3% of sigma)
Total Time for computing (T)           ...        0.045 sec (  1.6% of ALL)
  I/O of integral and amplitudes       ...        0.017 sec ( 38.4% of (T))
  External N**7 contributions          ...        0.010 sec ( 22.0% of (T))
  Internal N**7 contributions          ...        0.002 sec (  4.7% of (T))
  N**6 triples energy contributions    ...        0.013 sec ( 29.7% of (T))


Maximum memory used throughout the entire MDCI-calculation: 57.1 MB

-------------------------   --------------------
FINAL SINGLE POINT ENERGY       -76.355150287847
-------------------------   --------------------



           ************************************************************
           *        Program running with 8 parallel MPI-processes     *
           *              working on a common directory               *
           ************************************************************

------------------------------------------------------------------------------
                              ORCA PROPERTY CALCULATIONS
------------------------------------------------------------------------------

GBWName                                 ... sp.gbw
Number of atoms                         ...      3
Number of basis functions               ...     54
Max core memory                         ...   9000 MB

Electric properties:
Dipole moment                           ... YES
Quadrupole moment                       ...  NO
Static polarizability (Dipole/Dipole)   ...  NO
Static polarizability (Dipole/Quad.)    ...  NO
Static polarizability (Quad./Quad.)     ...  NO
Static polarizability (Velocity)        ...  NO
Static hyperpolarizability              ...  NO

Atomic electric properties:
Dipole moment                           ...  NO
Quadrupole moment                       ...  NO
Static polarizability                   ...  NO

Choice of electric origin               ... Center of mass
Position of electric origin             ...    -5.046324     5.150078    -6.518844

General magnetic properties:
Magnetizability                         ...  NO

EPR properties:
g-Tensor (aka g-matrix)                 ...  NO
Zero-Field splitting spin-orbit         ...  NO
Zero-field splitting spin-spin          ...  NO
Hyperfine couplings                     ...  NO (   0 nuclei)
Quadrupole couplings                    ...  NO (   0 nuclei)
Contact density                         ...  NO (   0 nuclei)

NMR properties:
Chemical shifts                         ...  NO (   0 nuclei)
Spin-rotation constants                 ...  NO (   0 nuclei)
Spin-spin couplings                     ...  NO (   0 nuclei,    0 pairs)

Choice of magnetic origin               ... GIAO
Position of magnetic origin             ...     0.000000     0.000000     0.000000

Properties with geometric perturbations:
SCF Hessian                             ...  NO
IR spectrum                             ...  NO
VCD spectrum                            ...  NO
X-ray spectroscopy properties:
SCF XES/XAS/RIXS spectra                ...  NO

SCF SOC stabilization energy            ...  NO
Diagonal Born-Oppenheimer correction    ...  NO

-------------
DIPOLE MOMENT
-------------

Method             : SCF
Type of density    : Electron Density
Multiplicity       :   1
Irrep              :   0
Energy             :   -76.0583750172426818 Eh
Basis              : AO
                                X                 Y                 Z
Electronic contribution:     -0.168640982       0.069544705       0.018581641
Nuclear contribution   :      0.901617916      -0.371813847      -0.099341080
                        -----------------------------------------
Total Dipole Moment    :      0.732976934      -0.302269142      -0.080759439
                        -----------------------------------------
Magnitude (a.u.)       :      0.796959163
Magnitude (Debye)      :      2.025709206



--------------------
Rotational spectrum 
--------------------
 
Rotational constants in cm-1:            27.151509            14.581211             9.486606 
Rotational constants in MHz :        813981.750519        437133.701342        284401.295580 

Dipole components along the rotational axes: 
x,y,z [a.u.] :    -0.000006    -0.796959    -0.000000 
x,y,z [Debye]:    -0.000016    -2.025709    -0.000000 

 

-------------
DIPOLE MOMENT
-------------

Method             : MDCI(SD)
Type of density    : Electron Density
Multiplicity       :   1
Level              : Linearized density
Irrep              :   0
Energy             :     0.0000000000000000 Eh
Basis              : AO
                                X                 Y                 Z
Electronic contribution:     -0.216617468       0.089329396       0.023867854
Nuclear contribution   :      0.901617916      -0.371813847      -0.099341080
                        -----------------------------------------
Total Dipole Moment    :      0.685000447      -0.282484451      -0.075473226
                        -----------------------------------------
Magnitude (a.u.)       :      0.744794795
Magnitude (Debye)      :      1.893117919



--------------------
Rotational spectrum 
--------------------
 
Rotational constants in cm-1:            27.151509            14.581211             9.486606 
Rotational constants in MHz :        813981.750519        437133.701342        284401.295580 

Dipole components along the rotational axes: 
x,y,z [a.u.] :    -0.000006    -0.744795     0.000000 
x,y,z [Debye]:    -0.000014    -1.893118     0.000000 

 

Dipole moment calculation done in   0.0 sec 

Maximum memory used throughout the entire PROP-calculation: 8.2 MB

--------------------------------
SUGGESTED CITATIONS FOR THIS RUN
--------------------------------

Below you find a list of papers that are relevant to this ORCA run
We neither can nor want to force you to cite these papers, but we appreciate if you do
You receive ORCA, which is the product of decades of hard work by many enthusiastic individuals, for free
The only thing we kindly ask in return is that you cite our papers,
We deeply appreciate it, if you show your appreciation for ORCA by not just citing the generic ORCA reference.

Please note that relegating all ORCA citations to the supporting information does *not* help us.
SI sections are not indexed - citations you put there will not count into any citation statistics
But we need these citations in order to attract the funding resources that allow us to do what we are doing

Therefore, if you are a happy ORCA user, please consider citing a few of the papers listed below in the main body of your paper

In addition to the list printed below, the program has created the file sp.bibtex that contains the list in bibtex format
You can import this file easily into all common literature databanks and citation aid programs

It goes without saying that in many instances, there are alternative algorithms to achieve similar
results as the ones you have gotten from ORCA. It is, of course, also the case that in some instances
ORCA just re-implements algorithms worked out by others. We are fully aware of that and we are also
fully appreciative of our colleagues work. Hence this citation list should not be read as indicating
that the listed papers, which are focused on our own work, are the only ones worth citing. It simply
meant to make it easier for users to cite ORCA specific papers. It is not a substitute for doing your
own literature research and citing the relevant literature in a scientifically appropriate manner.

List of essential papers. We consider these as the minimum necessary citations

  1. Neese, F.
     Software update: the ORCA program system, version 6.0
     WIRES Comput. Molec. Sci. 2025 15(1), e70019
     doi.org/10.1002/wcms.70019

List of papers to cite with high priority. The work reported in these papers was absolutely
necessary for this run to complete.
Our perspective: the developers of density functionals and basis sets usually get cited in chemistry papers
Good! But without the algorithms to do something with them, the functionals or basis sets would not do anything.
Hence, in our opinion, the algorithm design and method developments papers are equally worthy of getting cited

  1. Pavosevic, F.; Neese, F.; Valeev, E.F.
     Geminal-spanning orbitals make explicitly correlated reduced-scaling coupled-cluster methods robust, yet simple
     J. Chem. Phys. 2014 141 , 
     doi.org/10.1063/1.4890002
  2. Neese, F.
     The SHARK Integral Generation and Digestion System
     J. Comp. Chem. 2022 44(3), 381
     doi.org/10.1002/jcc.26942

List of suggested additional citations. These are papers that are important in the 'surrounding' of 
of this run, or papers that preceded the highly important papers. If you like your results we are grateful for a citation.

  1. Neese, F.
     The ORCA program system
     WIRES Comput. Molec. Sci. 2012 2(1), 73-78
     doi.org/10.1002/wcms.81
  2. Neese, F.
     Software update: the ORCA program system, version 4.0
     WIRES Comput. Molec. Sci. 2018 8(1), 1-6
     doi.org/10.1002/wcms.1327
  3. Neese, F.; Wennmohs, F.; Becker, U.; Riplinger, C.
     The ORCA quantum chemistry program package
     J. Chem. Phys. 2020 152(22), 224108
     doi.org/10.1063/5.0004608
  4. Neese, F.
     Software update: The ORCA program system—Version 5.0
     WIRES Comput. Molec. Sci. 2022 12(1), e1606
     doi.org/10.1002/wcms.1606

List of optional additional citations

  1. Neese, F.
     Approximate second-order SCF convergence for spin unrestricted wavefunctions
     Chem. Phys. Lett. 2000 325(1-3), 93-98
     doi.org/10.1016/s0009-2614(00)00662-x

Timings for individual modules:

Sum of individual times          ...       15.066 sec (=   0.251 min)
Startup calculation              ...        2.286 sec (=   0.038 min)  15.2 %
SCF iterations                   ...        4.113 sec (=   0.069 min)  27.3 %
Property integrals               ...        1.919 sec (=   0.032 min)  12.7 %
Property calculations            ...        1.976 sec (=   0.033 min)  13.1 %
MDCI module                      ...        4.772 sec (=   0.080 min)  31.7 %
                             ****ORCA TERMINATED NORMALLY****
TOTAL RUN TIME: 0 days 0 hours 0 minutes 16 seconds 997 msec
