15
* (null), Energy   -1000.0000000
C    -1.439102   -0.667617   -0.549819   -0.012472   -0.001575   -0.012601
C    -1.439211    0.667263   -0.549922   -0.012744    0.001588   -0.012411
H    -2.099460   -1.288191   -1.142368   -0.013170    0.022604   -0.044918
C    -0.426501    1.233447    0.414192   -0.123418    0.032824    0.079156
H    -2.099678    1.287622   -1.142580   -0.013494   -0.022634   -0.044801
C     0.406148    0.000076    0.790664   -0.118249    0.000286    0.130499
H     0.185636    2.024735   -0.024754   -0.057782   -0.030654    0.055476
H    -0.922867    1.663712    1.292721   -0.250691    0.130524   -0.060071
C    -0.426321   -1.233456    0.414414   -0.123041   -0.032665    0.079026
H     1.330585   -0.000111    0.082704   -1.387025    0.005390    0.996413
H     0.797623    0.000125    1.807719   -0.639554    0.000560    0.340035
H     0.186049   -2.024681   -0.024303   -0.056937    0.030541    0.056320
H    -0.922627   -1.663611    1.293016   -0.252277   -0.129861   -0.060704
O     2.539653   -0.002243   -0.669370    0.457769   -0.000716   -0.279767
H     3.134301    0.003151    0.095348    0.051405   -0.000572    0.060918
15
* Frequency(6) -673.4388
C    -1.440520   -0.667796   -0.551251   -0.012472   -0.001575   -0.012601
C    -1.440659    0.667444   -0.551333   -0.012744    0.001588   -0.012411
H    -2.100957   -1.285622   -1.147473   -0.013170    0.022604   -0.044918
C    -0.440526    1.237178    0.423187   -0.123418    0.032824    0.079156
H    -2.101212    1.285050   -1.147672   -0.013494   -0.022634   -0.044801
C     0.392709    0.000109    0.805495   -0.118249    0.000286    0.130499
H     0.179069    2.021251   -0.018449   -0.057782   -0.030654    0.055476
H    -0.951357    1.678545    1.285895   -0.250691    0.130524   -0.060071
C    -0.440304   -1.237168    0.423395   -0.123041   -0.032665    0.079026
H     1.172957    0.000501    0.195941   -1.387025    0.005390    0.996413
H     0.724941    0.000188    1.846362   -0.639554    0.000560    0.340035
H     0.179578   -2.021210   -0.017902   -0.056937    0.030541    0.056320
H    -0.951297   -1.678369    1.286118   -0.252277   -0.129861   -0.060704
O     2.591676   -0.002324   -0.701164    0.457769   -0.000716   -0.279767
H     3.140143    0.003086    0.102271    0.051405   -0.000572    0.060918
15
* Frequency(6) -673.4388
C    -1.441784   -0.667956   -0.552528   -0.012472   -0.001575   -0.012601
C    -1.441950    0.667605   -0.552590   -0.012744    0.001588   -0.012411
H    -2.102292   -1.283331   -1.152025   -0.013170    0.022604   -0.044918
C    -0.453032    1.240504    0.431208   -0.123418    0.032824    0.079156
H    -2.102579    1.282756   -1.152211   -0.013494   -0.022634   -0.044801
C     0.380727    0.000138    0.818718   -0.118249    0.000286    0.130499
H     0.173214    2.018145   -0.012828   -0.057782   -0.030654    0.055476
H    -0.976759    1.691771    1.279808   -0.250691    0.130524   -0.060071
C    -0.452771   -1.240478    0.431403   -0.123041   -0.032665    0.079026
H     1.032410    0.001047    0.296907   -1.387025    0.005390    0.996413
H     0.660135    0.000245    1.880818   -0.639554    0.000560    0.340035
H     0.173809   -2.018115   -0.012195   -0.056937    0.030541    0.056320
H    -0.976860   -1.691528    1.279967   -0.252277   -0.129861   -0.060704
O     2.638062   -0.002397   -0.729512    0.457769   -0.000716   -0.279767
H     3.145352    0.003028    0.108443    0.051405   -0.000572    0.060918
15
* Frequency(6) -673.4388
C    -1.442757   -0.668078   -0.553511   -0.012472   -0.001575   -0.012601
C    -1.442945    0.667729   -0.553559   -0.012744    0.001588   -0.012411
H    -2.103319   -1.281567   -1.155530   -0.013170    0.022604   -0.044918
C    -0.462663    1.243065    0.437385   -0.123418    0.032824    0.079156
H    -2.103632    1.280990   -1.155707   -0.013494   -0.022634   -0.044801
C     0.371500    0.000160    0.828902   -0.118249    0.000286    0.130499
H     0.168705    2.015753   -0.008499   -0.057782   -0.030654    0.055476
H    -0.996321    1.701956    1.275120   -0.250691    0.130524   -0.060071
C    -0.462373   -1.243027    0.437570   -0.123041   -0.032665    0.079026
H     0.924175    0.001468    0.374661   -1.387025    0.005390    0.996413
H     0.610229    0.000289    1.907352   -0.639554    0.000560    0.340035
H     0.169366   -2.015732   -0.007800   -0.056937    0.030541    0.056320
H    -0.996546   -1.701662    1.275230   -0.252277   -0.129861   -0.060704
O     2.673783   -0.002453   -0.751344    0.457769   -0.000716   -0.279767
H     3.149363    0.002983    0.113197    0.051405   -0.000572    0.060918
15
* Frequency(6) -673.4388
C    -1.443334   -0.668151   -0.554094   -0.012472   -0.001575   -0.012601
C    -1.443534    0.667802   -0.554133   -0.012744    0.001588   -0.012411
H    -2.103929   -1.280521   -1.157609   -0.013170    0.022604   -0.044918
C    -0.468375    1.244585    0.441049   -0.123418    0.032824    0.079156
H    -2.104256    1.279943   -1.157781   -0.013494   -0.022634   -0.044801
C     0.366027    0.000173    0.834941   -0.118249    0.000286    0.130499
H     0.166031    2.014334   -0.005931   -0.057782   -0.030654    0.055476
H    -1.007924    1.707997    1.272340   -0.250691    0.130524   -0.060071
C    -0.468067   -1.244539    0.441227   -0.123041   -0.032665    0.079026
H     0.859981    0.001717    0.420777   -1.387025    0.005390    0.996413
H     0.580629    0.000314    1.923090   -0.639554    0.000560    0.340035
H     0.166731   -2.014319   -0.005194   -0.056937    0.030541    0.056320
H    -1.008222   -1.707672    1.272420   -0.252277   -0.129861   -0.060704
O     2.694970   -0.002486   -0.764292    0.457769   -0.000716   -0.279767
H     3.151742    0.002957    0.116016    0.051405   -0.000572    0.060918
15
* Frequency(6) -673.4388
C    -1.443453   -0.668166   -0.554214   -0.012472   -0.001575   -0.012601
C    -1.443656    0.667817   -0.554251   -0.012744    0.001588   -0.012411
H    -2.104054   -1.280306   -1.158036   -0.013170    0.022604   -0.044918
C    -0.469549    1.244897    0.441802   -0.123418    0.032824    0.079156
H    -2.104385    1.279727   -1.158207   -0.013494   -0.022634   -0.044801
C     0.364902    0.000176    0.836183   -0.118249    0.000286    0.130499
H     0.165481    2.014043   -0.005403   -0.057782   -0.030654    0.055476
H    -1.010309    1.709239    1.271768   -0.250691    0.130524   -0.060071
C    -0.469238   -1.244850    0.441979   -0.123041   -0.032665    0.079026
H     0.846784    0.001769    0.430257   -1.387025    0.005390    0.996413
H     0.574544    0.000320    1.926325   -0.639554    0.000560    0.340035
H     0.166189   -2.014028   -0.004658   -0.056937    0.030541    0.056320
H    -1.010622   -1.708907    1.271843   -0.252277   -0.129861   -0.060704
O     2.699325   -0.002493   -0.766954    0.457769   -0.000716   -0.279767
H     3.152231    0.002951    0.116596    0.051405   -0.000572    0.060918
15
* Frequency(6) -673.4388
C    -1.443100   -0.668122   -0.553858   -0.012472   -0.001575   -0.012601
C    -1.443295    0.667772   -0.553900   -0.012744    0.001588   -0.012411
H    -2.103682   -1.280945   -1.156765   -0.013170    0.022604   -0.044918
C    -0.466059    1.243968    0.439563   -0.123418    0.032824    0.079156
H    -2.104003    1.280368   -1.156940   -0.013494   -0.022634   -0.044801
C     0.368246    0.000168    0.832492   -0.118249    0.000286    0.130499
H     0.167115    2.014910   -0.006972   -0.057782   -0.030654    0.055476
H    -1.003219    1.705547    1.273468   -0.250691    0.130524   -0.060071
C    -0.465758   -1.243926    0.439744   -0.123041   -0.032665    0.079026
H     0.886015    0.001616    0.402075   -1.387025    0.005390    0.996413
H     0.592633    0.000304    1.916707   -0.639554    0.000560    0.340035
H     0.167799   -2.014892   -0.006251   -0.056937    0.030541    0.056320
H    -1.003487   -1.705234    1.273560   -0.252277   -0.129861   -0.060704
O     2.686378   -0.002473   -0.759041    0.457769   -0.000716   -0.279767
H     3.150777    0.002967    0.114873    0.051405   -0.000572    0.060918
15
* Frequency(6) -673.4388
C    -1.442314   -0.668023   -0.553064   -0.012472   -0.001575   -0.012601
C    -1.442492    0.667672   -0.553118   -0.012744    0.001588   -0.012411
H    -2.102852   -1.282370   -1.153935   -0.013170    0.022604   -0.044918
C    -0.458281    1.241900    0.434575   -0.123418    0.032824    0.079156
H    -2.103153    1.281794   -1.154117   -0.013494   -0.022634   -0.044801
C     0.375698    0.000150    0.824268   -0.118249    0.000286    0.130499
H     0.170757    2.016842   -0.010468   -0.057782   -0.030654    0.055476
H    -0.987421    1.697322    1.277253   -0.250691    0.130524   -0.060071
C    -0.458004   -1.241867    0.434764   -0.123041   -0.032665    0.079026
H     0.973421    0.001277    0.339284   -1.387025    0.005390    0.996413
H     0.632936    0.000269    1.895279   -0.639554    0.000560    0.340035
H     0.171387   -2.016816   -0.009800   -0.056937    0.030541    0.056320
H    -0.987589   -1.697051    1.277385   -0.252277   -0.129861   -0.060704
O     2.657530   -0.002427   -0.741411    0.457769   -0.000716   -0.279767
H     3.147538    0.003004    0.111034    0.051405   -0.000572    0.060918
15
* Frequency(6) -673.4388
C    -1.441180   -0.667879   -0.551918   -0.012472   -0.001575   -0.012601
C    -1.441333    0.667528   -0.551990   -0.012744    0.001588   -0.012411
H    -2.101654   -1.284425   -1.149851   -0.013170    0.022604   -0.044918
C    -0.447060    1.238915    0.427378   -0.123418    0.032824    0.079156
H    -2.101926    1.283852   -1.150043   -0.013494   -0.022634   -0.044801
C     0.386450    0.000124    0.812403   -0.118249    0.000286    0.130499
H     0.176010    2.019629   -0.015512   -0.057782   -0.030654    0.055476
H    -0.964627    1.685454    1.282715   -0.250691    0.130524   -0.060071
C    -0.446817   -1.238897    0.427579   -0.123041   -0.032665    0.079026
H     1.099532    0.000787    0.248688   -1.387025    0.005390    0.996413
H     0.691085    0.000218    1.864363   -0.639554    0.000560    0.340035
H     0.176564   -2.019593   -0.014921   -0.056937    0.030541    0.056320
H    -0.964651   -1.685244    1.282904   -0.252277   -0.129861   -0.060704
O     2.615909   -0.002362   -0.715974    0.457769   -0.000716   -0.279767
H     3.142864    0.003056    0.105495    0.051405   -0.000572    0.060918
15
* Frequency(6) -673.4388
C    -1.439821   -0.667708   -0.550545   -0.012472   -0.001575   -0.012601
C    -1.439945    0.667355   -0.550637   -0.012744    0.001588   -0.012411
H    -2.100219   -1.286888   -1.144956   -0.013170    0.022604   -0.044918
C    -0.433611    1.235338    0.418752   -0.123418    0.032824    0.079156
H    -2.100455    1.286318   -1.145161   -0.013494   -0.022634   -0.044801
C     0.399336    0.000093    0.798182   -0.118249    0.000286    0.130499
H     0.182307    2.022969   -0.021558   -0.057782   -0.030654    0.055476
H    -0.937309    1.671231    1.289261   -0.250691    0.130524   -0.060071
C    -0.433409   -1.235338    0.418967   -0.123041   -0.032665    0.079026
H     1.250681    0.000199    0.140106   -1.387025    0.005390    0.996413
H     0.760780    0.000157    1.827308   -0.639554    0.000560    0.340035
H     0.182769   -2.022921   -0.021058   -0.056937    0.030541    0.056320
H    -0.937160   -1.671092    1.289519   -0.252277   -0.129861   -0.060704
O     2.566024   -0.002284   -0.685487    0.457769   -0.000716   -0.279767
H     3.137262    0.003118    0.098857    0.051405   -0.000572    0.060918
15
* Frequency(6) -673.4388
C    -1.438384   -0.667526   -0.549093   -0.012472   -0.001575   -0.012601
C    -1.438476    0.667172   -0.549207   -0.012744    0.001588   -0.012411
H    -2.098702   -1.289493   -1.139781   -0.013170    0.022604   -0.044918
C    -0.419391    1.231557    0.409632   -0.123418    0.032824    0.079156
H    -2.098901    1.288926   -1.140000   -0.013494   -0.022634   -0.044801
C     0.412960    0.000060    0.783147   -0.118249    0.000286    0.130499
H     0.188964    2.026501   -0.027950   -0.057782   -0.030654    0.055476
H    -0.908425    1.656192    1.296182   -0.250691    0.130524   -0.060071
C    -0.419233   -1.231574    0.409862   -0.123041   -0.032665    0.079026
H     1.410489   -0.000422    0.025303   -1.387025    0.005390    0.996413
H     0.834467    0.000092    1.788130   -0.639554    0.000560    0.340035
H     0.189329   -2.026440   -0.027547   -0.056937    0.030541    0.056320
H    -0.908093   -1.656130    1.296513   -0.252277   -0.129861   -0.060704
O     2.513282   -0.002202   -0.653253    0.457769   -0.000716   -0.279767
H     3.131340    0.003184    0.091838    0.051405   -0.000572    0.060918
15
* Frequency(6) -673.4388
C    -1.437025   -0.667355   -0.547720   -0.012472   -0.001575   -0.012601
C    -1.437088    0.666999   -0.547855   -0.012744    0.001588   -0.012411
H    -2.097267   -1.291956   -1.134886   -0.013170    0.022604   -0.044918
C    -0.405941    1.227980    0.401006   -0.123418    0.032824    0.079156
H    -2.097430    1.291392   -1.135117   -0.013494   -0.022634   -0.044801
C     0.425846    0.000029    0.768926   -0.118249    0.000286    0.130499
H     0.195261    2.029841   -0.033995   -0.057782   -0.030654    0.055476
H    -0.881106    1.641969    1.302728   -0.250691    0.130524   -0.060071
C    -0.405824   -1.228015    0.401250   -0.123041   -0.032665    0.079026
H     1.561638   -0.001009   -0.083280   -1.387025    0.005390    0.996413
H     0.904161    0.000031    1.751075   -0.639554    0.000560    0.340035
H     0.195534   -2.029768   -0.033685   -0.056937    0.030541    0.056320
H    -0.880602   -1.641979    1.303129   -0.252277   -0.129861   -0.060704
O     2.463397   -0.002124   -0.622766    0.457769   -0.000716   -0.279767
H     3.125738    0.003246    0.085200    0.051405   -0.000572    0.060918
15
* Frequency(6) -673.4388
C    -1.435891   -0.667211   -0.546574   -0.012472   -0.001575   -0.012601
C    -1.435929    0.666854   -0.546726   -0.012744    0.001588   -0.012411
H    -2.096069   -1.294011   -1.130802   -0.013170    0.022604   -0.044918
C    -0.394720    1.224995    0.393809   -0.123418    0.032824    0.079156
H    -2.096203    1.293450   -1.131044   -0.013494   -0.022634   -0.044801
C     0.436597    0.000003    0.757061   -0.118249    0.000286    0.130499
H     0.200515    2.032628   -0.039039   -0.057782   -0.030654    0.055476
H    -0.858313    1.630101    1.308190   -0.250691    0.130524   -0.060071
C    -0.394637   -1.225045    0.394065   -0.123041   -0.032665    0.079026
H     1.687748   -0.001499   -0.173876   -1.387025    0.005390    0.996413
H     0.962311   -0.000020    1.720159   -0.639554    0.000560    0.340035
H     0.200710   -2.032545   -0.038805   -0.056937    0.030541    0.056320
H    -0.857664   -1.630172    1.308648   -0.252277   -0.129861   -0.060704
O     2.421776   -0.002059   -0.597329    0.457769   -0.000716   -0.279767
H     3.121064    0.003298    0.079661    0.051405   -0.000572    0.060918
15
* Frequency(6) -673.4388
C    -1.435105   -0.667112   -0.545780   -0.012472   -0.001575   -0.012601
C    -1.435126    0.666754   -0.545944   -0.012744    0.001588   -0.012411
H    -2.095239   -1.295436   -1.127971   -0.013170    0.022604   -0.044918
C    -0.386943    1.222927    0.388821   -0.123418    0.032824    0.079156
H    -2.095353    1.294877   -1.128221   -0.013494   -0.022634   -0.044801
C     0.444049   -0.000016    0.748837   -0.118249    0.000286    0.130499
H     0.204156    2.034560   -0.042535   -0.057782   -0.030654    0.055476
H    -0.842515    1.621876    1.311975   -0.250691    0.130524   -0.060071
C    -0.386884   -1.222986    0.389085   -0.123041   -0.032665    0.079026
H     1.775155   -0.001839   -0.236667   -1.387025    0.005390    0.996413
H     1.002613   -0.000055    1.698731   -0.639554    0.000560    0.340035
H     0.204298   -2.034470   -0.042354   -0.056937    0.030541    0.056320
H    -0.841767   -1.621988    1.312473   -0.252277   -0.129861   -0.060704
O     2.392929   -0.002014   -0.579699    0.457769   -0.000716   -0.279767
H     3.117824    0.003334    0.075822    0.051405   -0.000572    0.060918
15
* Frequency(6) -673.4388
C    -1.434752   -0.667068   -0.545424   -0.012472   -0.001575   -0.012601
C    -1.434765    0.666709   -0.545593   -0.012744    0.001588   -0.012411
H    -2.094867   -1.296075   -1.126701   -0.013170    0.022604   -0.044918
C    -0.383452    1.221998    0.386582   -0.123418    0.032824    0.079156
H    -2.094971    1.295517   -1.126954   -0.013494   -0.022634   -0.044801
C     0.447394   -0.000024    0.745146   -0.118249    0.000286    0.130499
H     0.205790    2.035427   -0.044104   -0.057782   -0.030654    0.055476
H    -0.835424    1.618184    1.313674   -0.250691    0.130524   -0.060071
C    -0.383404   -1.222062    0.386850   -0.123041   -0.032665    0.079026
H     1.814385   -0.001991   -0.264849   -1.387025    0.005390    0.996413
H     1.020703   -0.000071    1.689113   -0.639554    0.000560    0.340035
H     0.205909   -2.035334   -0.043947   -0.056937    0.030541    0.056320
H    -0.834631   -1.618315    1.314190   -0.252277   -0.129861   -0.060704
O     2.379981   -0.001994   -0.571786    0.457769   -0.000716   -0.279767
H     3.116370    0.003350    0.074099    0.051405   -0.000572    0.060918
15
* Frequency(6) -673.4388
C    -1.434871   -0.667083   -0.545544   -0.012472   -0.001575   -0.012601
C    -1.434887    0.666725   -0.545711   -0.012744    0.001588   -0.012411
H    -2.094992   -1.295860   -1.127128   -0.013170    0.022604   -0.044918
C    -0.384626    1.222310    0.387335   -0.123418    0.032824    0.079156
H    -2.095100    1.295301   -1.127380   -0.013494   -0.022634   -0.044801
C     0.446269   -0.000021    0.746388   -0.118249    0.000286    0.130499
H     0.205241    2.035135   -0.043576   -0.057782   -0.030654    0.055476
H    -0.837810    1.619426    1.313103   -0.250691    0.130524   -0.060071
C    -0.384574   -1.222373    0.387602   -0.123041   -0.032665    0.079026
H     1.801188   -0.001940   -0.255369   -1.387025    0.005390    0.996413
H     1.014618   -0.000065    1.692349   -0.639554    0.000560    0.340035
H     0.205367   -2.035043   -0.043412   -0.056937    0.030541    0.056320
H    -0.837032   -1.619551    1.313613   -0.252277   -0.129861   -0.060704
O     2.384337   -0.002000   -0.574448    0.457769   -0.000716   -0.279767
H     3.116860    0.003345    0.074679    0.051405   -0.000572    0.060918
15
* Frequency(6) -673.4388
C    -1.435448   -0.667155   -0.546127   -0.012472   -0.001575   -0.012601
C    -1.435477    0.666798   -0.546286   -0.012744    0.001588   -0.012411
H    -2.095602   -1.294814   -1.129207   -0.013170    0.022604   -0.044918
C    -0.390338    1.223830    0.390998   -0.123418    0.032824    0.079156
H    -2.095724    1.294254   -1.129453   -0.013494   -0.022634   -0.044801
C     0.440796   -0.000008    0.752427   -0.118249    0.000286    0.130499
H     0.202566    2.033717   -0.041009   -0.057782   -0.030654    0.055476
H    -0.849412    1.625467    1.310323   -0.250691    0.130524   -0.060071
C    -0.390269   -1.223885    0.391259   -0.123041   -0.032665    0.079026
H     1.736994   -0.001691   -0.209253   -1.387025    0.005390    0.996413
H     0.985018   -0.000039    1.708086   -0.639554    0.000560    0.340035
H     0.202732   -2.033630   -0.040805   -0.056937    0.030541    0.056320
H    -0.848707   -1.625561    1.310803   -0.252277   -0.129861   -0.060704
O     2.405523   -0.002033   -0.587396    0.457769   -0.000716   -0.279767
H     3.119239    0.003318    0.077498    0.051405   -0.000572    0.060918
15
* Frequency(6) -673.4388
C    -1.436421   -0.667278   -0.547110   -0.012472   -0.001575   -0.012601
C    -1.436471    0.666922   -0.547254   -0.012744    0.001588   -0.012411
H    -2.096629   -1.293050   -1.132712   -0.013170    0.022604   -0.044918
C    -0.399969    1.226391    0.397175   -0.123418    0.032824    0.079156
H    -2.096777    1.292488   -1.132949   -0.013494   -0.022634   -0.044801
C     0.431568    0.000015    0.762611   -0.118249    0.000286    0.130499
H     0.198057    2.031325   -0.036680   -0.057782   -0.030654    0.055476
H    -0.868975    1.635652    1.305635   -0.250691    0.130524   -0.060071
C    -0.399870   -1.226434    0.397426   -0.123041   -0.032665    0.079026
H     1.628760   -0.001270   -0.131499   -1.387025    0.005390    0.996413
H     0.935111    0.000004    1.734620   -0.639554    0.000560    0.340035
H     0.198289   -2.031246   -0.036410   -0.056937    0.030541    0.056320
H    -0.868394   -1.635694    1.306066   -0.252277   -0.129861   -0.060704
O     2.441244   -0.002089   -0.609227    0.457769   -0.000716   -0.279767
H     3.123250    0.003274    0.082252    0.051405   -0.000572    0.060918
15
* Frequency(6) -673.4388
C    -1.437685   -0.667438   -0.548387   -0.012472   -0.001575   -0.012601
C    -1.437762    0.667083   -0.548512   -0.012744    0.001588   -0.012411
H    -2.097964   -1.290759   -1.137264   -0.013170    0.022604   -0.044918
C    -0.412475    1.229717    0.405196   -0.123418    0.032824    0.079156
H    -2.098145    1.290194   -1.137489   -0.013494   -0.022634   -0.044801
C     0.419586    0.000044    0.775834   -0.118249    0.000286    0.130499
H     0.192202    2.028219   -0.031058   -0.057782   -0.030654    0.055476
H    -0.894377    1.648878    1.299548   -0.250691    0.130524   -0.060071
C    -0.412338   -1.229744    0.405434   -0.123041   -0.032665    0.079026
H     1.488213   -0.000724   -0.030533   -1.387025    0.005390    0.996413
H     0.870305    0.000061    1.769076   -0.639554    0.000560    0.340035
H     0.192519   -2.028152   -0.030703   -0.056937    0.030541    0.056320
H    -0.893957   -1.648853    1.299915   -0.252277   -0.129861   -0.060704
O     2.487630   -0.002162   -0.637576    0.457769   -0.000716   -0.279767
H     3.128459    0.003216    0.088425    0.051405   -0.000572    0.060918
15
* Frequency(6) -673.4388
C    -1.439102   -0.667617   -0.549819   -0.012472   -0.001575   -0.012601
C    -1.439211    0.667263   -0.549922   -0.012744    0.001588   -0.012411
H    -2.099460   -1.288191   -1.142368   -0.013170    0.022604   -0.044918
C    -0.426501    1.233447    0.414192   -0.123418    0.032824    0.079156
H    -2.099678    1.287622   -1.142580   -0.013494   -0.022634   -0.044801
C     0.406148    0.000076    0.790664   -0.118249    0.000286    0.130499
H     0.185636    2.024735   -0.024754   -0.057782   -0.030654    0.055476
H    -0.922867    1.663712    1.292721   -0.250691    0.130524   -0.060071
C    -0.426321   -1.233456    0.414414   -0.123041   -0.032665    0.079026
H     1.330585   -0.000111    0.082704   -1.387025    0.005390    0.996413
H     0.797623    0.000125    1.807719   -0.639554    0.000560    0.340035
H     0.186049   -2.024681   -0.024303   -0.056937    0.030541    0.056320
H    -0.922627   -1.663611    1.293016   -0.252277   -0.129861   -0.060704
O     2.539653   -0.002243   -0.669370    0.457769   -0.000716   -0.279767
H     3.134301    0.003151    0.095348    0.051405   -0.000572    0.060918
