
                                 *****************
                                 * O   R   C   A *
                                 *****************

                                            #,                                       
                                            ###                                      
                                            ####                                     
                                            #####                                    
                                            ######                                   
                                           ########,                                 
                                     ,,################,,,,,                         
                               ,,#################################,,                 
                          ,,##########################################,,             
                       ,#########################################, ''#####,          
                    ,#############################################,,   '####,        
                  ,##################################################,,,,####,       
                ,###########''''           ''''###############################       
              ,#####''   ,,,,##########,,,,          '''####'''          '####       
            ,##' ,,,,###########################,,,                        '##       
           ' ,,###''''                  '''############,,,                           
         ,,##''                                '''############,,,,        ,,,,,,###''
      ,#''                                            '''#######################'''  
     '                                                          ''''####''''         
             ,#######,   #######,   ,#######,      ##                                
            ,#'     '#,  ##    ##  ,#'     '#,    #''#        ,####,    ,#,          
            ##       ##  ##   ,#'  ##            #'  '#       #'       ,# #          
            ##       ##  #######   ##           ,######,      #####,      #          
            '#,     ,#'  ##    ##  '#,     ,#' ,#      #,     #,   #      #          
             '#######'   ##     ##  '#######'  #'      '#     '####' #    #          



                #########################################################
                #                        -***-                          #
                #          Department of theory and spectroscopy        #
                #                                                       #
                #                      Frank Neese                      #
                #                                                       #
                #     Directorship, Architecture, Infrastructure        #
                #                    SHARK, DRIVERS                     #
                #        Core code/Algorithms in most modules           #
                #                                                       #
                #        Max Planck Institute fuer Kohlenforschung      #
                #                Kaiser Wilhelm Platz 1                 #
                #                 D-45470 Muelheim/Ruhr                 #
                #                      Germany                          #
                #                                                       #
                #                  All rights reserved                  #
                #                        -***-                          #
                #########################################################


                         Program Version 6.1.1  -  RELEASE   -
                                (GIT: $487d211c$)
                          ($2025-11-21 10:33:24 +0100$)


 With contributions from (in alphabetic order):
[Max-Planck-Institut fuer Kohlenforschung]                               
  Daniel Aravena         : Magnetic Suceptibility                        
  Michael Atanasov       : Ab Initio Ligand Field Theory (pilot matlab implementation)
  Alexander A. Auer      : GIAO ZORA, VPT2 properties, NMR spectrum      
  Ute Becker             : All parallelization in ORCA, NUMFREQ, NUMCALC 
  Giovanni Bistoni       : ED, misc. LED, open-shell LED, HFLD           
  Dmytro Bykov           : pre 5.0 version of the SCF Hessian            
  Marcos Casanova-Páez   : Triplet and SCS-CIS(D). UHF-(DLPNO)-IP/EA/STEOM-CCSD. UHF-CVS-IP/STEOM-CCSD   
  Vijay G. Chilkuri      : MRCI spin determinant printing, contributions to CSF-ICE 
  Pauline Colinet        : FMM embedding                                 
  Dipayan Datta          : RHF DLPNO-CCSD density                        
  Achintya Kumar Dutta   : EOM-CC, STEOM-CC                              
  Nicolas Foglia         : Exact transition moments, OPA infrastructure, MCD improvements    
  Dmitry Ganyushin       : Spin-Orbit,Spin-Spin,Magnetic field MRCI      
  Miquel Garcia-Rates    : C-PCM and meta-GGA Hessian, CCSD/C-PCM, Gaussian charge scheme 
  Tiago L. C. Gouveia    : GS-ROHF, GS-ROCIS                             
  Yang Guo               : DLPNO-NEVPT2, F12-NEVPT2, CIM, IAO-localization        
  Andreas Hansen         : Spin unrestricted coupled pair/coupled cluster methods 
  Ingolf Harden          : AUTO-CI MPn and infrastructure                
  Benjamin Helmich-Paris : MC-RPA, TRAH-(SCF,CASSCF), AVAS, COSX integrals, SCF dyn. polar., MC-PDFT, srDFT 
  Lee Huntington         : MR-EOM, pCC                                   
  Robert Izsak           : Overlap fitted RIJCOSX, COSX-SCS-MP3, EOM     
  Riya Kayal             : Wick's Theorem for AUTO-CI, AUTO-CI UHF-CCSDT 
  Emily Kempfer          : AUTO-CI RHF CISDT and CCSDT, approximate NEVPT4
  Christian Kollmar      : KDIIS, OOCD, Brueckner-CCSD(T), CCSD density, CASPT2, CASPT2-K, improved NEVPT2 
  Axel Koslowski         : Symmetry handling                             
  Simone Kossmann        : meta-GGA functionals, TD-DFT gradient, OOMP2, (MP2 Hessian; deprecated post 5.0) 
  Lucas Lang             : DCDCAS, Hyperfine gauge corrections, ICE-SOC+SSC
  Marvin Lechner         : AUTO-CI (C++ implementation), FIC-MRCC        
  Spencer Leger          : CASSCF response                               
  Dagmar Lenk            : GEPOL surface, SMD, ORCA-2-JSON               
  Dimitrios Liakos       : Extrapolation schemes; Compound Job, Property file
  Dimitrios Manganas     : Further ROCIS development; embedding schemes. LFT, Crystal Embedding 
  Dimitrios Pantazis     : SARC Basis sets                               
  Anastasios Papadopoulos: AUTO-CI, single reference methods and gradients 
  Taras Petrenko         : pre 6.0 DFT Hessian and TD-DFT gradient,  ECA, NRVS 
  Petra Pikulova         : Analytic Raman intensities                    
  Peter Pinski           : DLPNO-MP2, DLPNO-MP2 Gradient                 
  Shashank Vittal Rao    : ES-AILFT, MagRelax                            
  Christoph Reimann      : Effective Core Potentials                     
  Marius Retegan         : Local ZFS, SOC                                
  Christoph Riplinger    : Optimizer, TS searches, QM/MM, DLPNO-CCSD(T), (RO)-DLPNO pert. Triples 
  Michael Roemelt        : Original ROCIS implementation, recursive CI coupling coefficients
  Masaaki Saitow         : Open-shell DLPNO-CCSD energy and density      
  Barbara Sandhoefer     : DKH picture change effects                    
  Yorick L. A. Schmerwitz: GMF and freeze-and-release deltaSCF, NEB S-IDPP initial path                    
  Kantharuban Sivalingam : CASSCF convergence/infrastructure, NEVPT2, NEVPT3, NEVPT4(SD), FIC-MRCI and CEPA variants
  Bernardo de Souza      : ESD, SOC TD-DFT                               
  Georgi L. Stoychev     : AutoAux, RI-MP2 NMR, DLPNO-MP2 response, X2C  
  Van Anh Tran           : RI-MP2 g-tensors                              
  Willem Van den Heuvel  : Paramagnetic NMR                              
  Zikuan Wang            : NOTCH, Electric field optimization            
  Frank Wennmohs         : Technical directorship and infrastructure     
  Hang Xu                : AUTO-CI-Response properties                   
                                                                         
[FACCTs GmbH]                                                            
  Markus Bursch, Nicolas Foglia, Miquel Garcia-Rates, Ingolf Harden, Hagen Neugebauer, Anastasios Papadopoulos, 
  Christoph Riplinger, Bernardo de Souza, Georgi L. Stoychev                                                    
                                                                 
  APM, various basis sets, CI-OPT, improved COSX, DLPNO-Multilevel,           
  DOCKER, DRACO, updates on ESD, Fragmentator, GOAT, IRC, LR-CPCM, L-BFGS, MBIS, meta-GGA TD-DFT gradient, ML-optimized integration grids, 
  MM, NACMEs, nearIR, NEB, NEB-TS, NL-DFT gradient (VV10), 2- and 3-layer-ONIOM, interface openCOSMO-RS, QMMM,   
  Crystal-QMMM, RESP, rigid body optimization, SF, symmetry and pop. for TD-DFT, various functionals, SOLVATOR                                   
                                                                         
[Other institutions]                                                     
  V. Asgeirsson          : NEB                                           
  Christoph Bannwarth    : sTDA-DFT, sTD-DFT, PBEh-3c, B97-3c, D3        
  Giovanni Bistoni       : ETS/NOCV, ADLD/ADEX, COVALED                  
  Martin Brehm           : Molecular dynamics                            
  Ronald Cardenas        : ETS/NOCV                                      
  Martina Colucci        : COVALED                                       
  Sebastian Ehlert       : rSCAN, r2SCAN, r2SCAN-3c, D4, dhf basis sets  
  Marvin Friede          : D4 for Fr, Ra, Ac-Lr                          
  Lars Goerigk           : TD-DFT with DH, B97 family of functionals     
  Stefan Grimme          : VdW corrections, initial TS optimization, DFT functionals, gCP, sTDA/sTD-DF 
  Waldemar Hujo          : DFT-NL                                        
  H. Jonsson             : NEB                                           
  Holger Kruse           : gCP                                           
  Marcel Mueller         : wB97X-3c, vDZP basis set                      
  Hagen Neugebauer       : wr2SCAN, Native XTB                           
  Gianluca Regni         : ADLD/ADEX                                     
  Tobias Risthaus        : pre 6.0 range-separated hybrid DFT and stability analysis
  Lukas Wittmann         : regularized MP2, r2SCAN double-hybrids, wr2SCAN        
                                                                         
We gratefully acknowledge several colleagues who have allowed us to      
interface, adapt or use parts of their codes:                            
  Ed Valeev, F. Pavosevic, A. Kumar             : LibInt (2-el integral package), F12 methods 
  Garnet Chan, S. Sharma, J. Yang, R. Olivares  : DMRG                   
  Ulf Ekstrom                                   : XCFun DFT Library      
  Mihaly Kallay                                 : mrcc  (arbitrary order and MRCC methods)
  Frank Weinhold                                : gennbo (NPA and NBO analysis)           
  Simon Mueller                                 : openCOSMO-RS                            
  Christopher J. Cramer and Donald G. Truhlar   : smd solvation model                     
  S Lehtola, MJT Oliveira, MAL Marques          : LibXC Library                           
  Liviu Ungur et al                             : ANISO software                          


 Your calculation uses the libint2 library for the computation of 2-el integrals
 For citations please refer to: http://libint.valeyev.net

 Your ORCA version has been built with support for libXC version: 7.0.0
 For citations please refer to: https://libxc.gitlab.io

 This ORCA versions uses:
   CBLAS   interface :  Fast vector & matrix operations
   LAPACKE interface :  Fast linear algebra routines
   SCALAPACK package :  Parallel linear algebra routines
   Shared memory     :  Shared parallel matrices
   BLAS/LAPACK       :  OpenBLAS 0.3.29  USE64BITINT DYNAMIC_ARCH NO_AFFINITY Zen SINGLE_THREADED
        Core in use  :  Zen
   Copyright (c) 2011-2014, The OpenBLAS Project


  ***********************************
  * Starting time: Tue Mar 10 11:52:30 2026
  * Host name:     a2-14
  * Process ID:    362346
  * Working dir.:  /home/avcopan/proj/project-cyclopentane/code/oh-addition/calc/cyC5e1/RH+OH-c3_R-alkyl+H2O_saddle
  ***********************************

NOTE: MaxCore=6000 MB was set to SCF,MP2,MDCI,CIPSI,MRCI,RASCI and CIS
      => If you want to overwrite this, your respective input block should be placed after the MaxCore statement


***************************************
The coordinates will be read from file: guess.xyz
***************************************


Your calculation utilizes the atom-pairwise dispersion correction
based on EEQ partial charges (D4)


Warning: RI is on but no J-basis has been assigned. Assigning Def2/J (nothing to worry about!)
================================================================================

----- Orbital basis set information -----
Your calculation utilizes the basis: def2-TZVPP
   F. Weigend and R. Ahlrichs, Phys. Chem. Chem. Phys. 7, 3297 (2005).

----- AuxJ basis set information -----
Your calculation utilizes the auxiliary basis: def2/J
   H-Rn: F. Weigend, Phys. Chem. Chem. Phys. 8, 1057 (2006).
   Fr-Lr: K. Eichkorn, F. Weigend, O. Treutler, R. Ahlrichs; Theor. Chem. Acc. 97, 119 (1997).

----- AuxC basis set information -----
Your calculation utilizes the auxiliary basis: def2-TZVPP/C
  H-La, Hf-Rn : A. Hellweg, C. Hattig, S. Hofener and W. Klopper, Theor. Chem. Acc. 117, 587 (2007).
        Ce-Lu : J. Chmela and M. E. Harding, Mol. Phys. (2018).

================================================================================
                                        WARNINGS
                       Please study these warnings very carefully!
================================================================================


WARNING: your system is open-shell and RHF/RKS was chosen
  ===> : WILL SWITCH to UHF/UKS


WARNING: The frozen-core approximation for MP2-gradient calculations is turned on by default.

WARNING: The environment variable RSH_COMMAND is not set!
  ===> : All Displacements for the Numerical Hessian or Gradient calculation
         will be started on localhost

WARNING: Geometry Optimization
  ===> : Switching off AutoStart
         For restart on a previous wavefunction, please use MOREAD

WARNING: The frozen-core approximation is turned on by default for 
         the MP2 part of double-hybrid DFT.

================================================================================
                                       INPUT FILE
================================================================================
NAME = opt.inp
|  1> % MaxCore 6000
|  2> ! PAL8
|  3> ! REVDSD-PBEP86-D4/2021 def2-TZVPP def2-TZVPP/c
|  4> ! VeryTightSCF DefGrid3
|  5> ! OptTS
|  6> ! NumFreq
|  7> %geom 
|  8>    InHess      read
|  9>    InHessName  "guess.hess"
| 10> end
| 11> * xyzfile 0 2 guess.xyz
| 12> 
| 13>                          ****END OF INPUT****
================================================================================

                       *****************************
                       * Geometry Optimization Run *
                       *****************************

Geometry optimization settings:
Update method            Update   .... Bofill
Choice of coordinates    CoordSys .... (2022) Redundant Internals
Initial Hessian          InHess   .... Read
Max. no of cycles        MaxIter  .... 50

Convergence Tolerances:
Energy Change            TolE     ....  5.0000e-06 Eh
Max. Gradient            TolMAXG  ....  3.0000e-04 Eh/bohr
RMS Gradient             TolRMSG  ....  1.0000e-04 Eh/bohr
Max. Displacement        TolMAXD  ....  4.0000e-03 bohr
RMS Displacement         TolRMSD  ....  2.0000e-03 bohr
Strict Convergence                .... False

------------------------------------------------------------------------------
                        ORCA OPTIMIZATION COORDINATE SETUP
------------------------------------------------------------------------------

The optimization will be done in redundant internal coordinates (2022)
Making redundant internal coordinates   ...  (2022 redundants) done
Following TS mode number                ...     0
Evaluating the initial hessian          ... (Reading Exact Hessian)...  
InHessName: guess.hess	The file <guess.hess> is opened as a .hess file
done
done
Evaluating the coordinates              ...  done
Calculating the B-matrix                .... done
Calculating the G-matrix                .... done
The number of degrees of freedom        ....   78

    -----------------------------------------------------------------
                    Redundant Internal Coordinates


    -----------------------------------------------------------------
         Definition                    Initial Value    d2E/dq (diagonal element)
    -----------------------------------------------------------------
      1. B(C   1,C   0)                  1.3348         0.495086   
      2. B(H   2,C   0)                  1.0826         0.363189   
      3. B(C   3,C   1)                  1.5083         0.248766   
      4. B(H   4,C   1)                  1.0826         0.361981   
      5. B(C   5,C   3)                  1.5347         0.232272   
      6. B(H   6,C   3)                  1.0924         0.336803   
      7. B(H   7,C   3)                  1.0969         0.324623   
      8. B(C   8,C   5)                  1.5348         0.234675   
      9. B(C   8,C   0)                  1.5083         0.252191   
     10. B(H   9,C   5)                  1.1641         0.203645   
     11. B(H  10,C   5)                  1.0897         0.343824   
     12. B(H  11,C   8)                  1.0924         0.339733   
     13. B(H  12,C   8)                  1.0969         0.326260   
     14. B(O  13,H   9)                  1.4244         0.000850   
     15. B(H  14,O  13)                  0.9688         0.320319   
     16. B(H  14,H   9)                  1.8037         0.021358   
     17. A(H   2,C   0,C   8)          122.9762         0.073668   
     18. A(C   1,C   0,H   2)          124.9639         0.075630   
     19. A(C   1,C   0,C   8)          112.0376         0.079957   
     20. A(C   0,C   1,H   4)          124.9642         0.072541   
     21. A(C   3,C   1,H   4)          122.9774         0.071560   
     22. A(C   0,C   1,C   3)          112.0363         0.078595   
     23. A(C   1,C   3,H   6)          113.0261         0.039019   
     24. A(C   5,C   3,H   6)          112.1148         0.036607   
     25. A(C   1,C   3,C   5)          102.6616         0.065426   
     26. A(H   6,C   3,H   7)          106.9356         0.027756   
     27. A(C   5,C   3,H   7)          111.3650         0.048423   
     28. A(C   1,C   3,H   7)          110.8187         0.034258   
     29. A(C   3,C   5,H   9)          106.3438         0.033530   
     30. A(C   3,C   5,C   8)          106.9491         0.053677   
     31. A(C   8,C   5,H  10)          115.0633         0.050926   
     32. A(C   3,C   5,H  10)          115.0659         0.029901   
     33. A(C   8,C   5,H   9)          106.3355         0.028471   
     34. A(H   9,C   5,H  10)          106.4111         0.033422   
     35. A(C   0,C   8,C   5)          102.6599         0.068184   
     36. A(H  11,C   8,H  12)          106.9269         0.051917   
     37. A(C   5,C   8,H  12)          111.3592         0.056000   
     38. A(C   0,C   8,H  12)          110.8190         0.102209   
     39. A(C   5,C   8,H  11)          112.1315         0.038913   
     40. A(C   0,C   8,H  11)          113.0257         0.032018   
     41. A(O  13,H   9,H  14)           32.2890         0.033756   
     42. A(C   5,H   9,H  14)          142.2222         0.014101   
     43. A(C   5,H   9,O  13)          174.5030         0.011969   
     44. A(H   9,O  13,H  14)           95.9488         0.023392   
     45. A(H   9,H  14,O  13)           51.7622         0.005738   
     46. D(H   4,C   1,C   0,H   2)     -0.0164         0.008963   
     47. D(H   4,C   1,C   0,C   8)   -178.3345         0.010074   
     48. D(C   3,C   1,C   0,H   2)    178.3116         0.010309   
     49. D(C   3,C   1,C   0,C   8)     -0.0065         0.010628   
     50. D(C   5,C   3,C   1,H   4)   -169.9960         0.008461   
     51. D(H   6,C   3,C   1,C   0)    132.6169         0.018345   
     52. D(H   7,C   3,C   1,C   0)   -107.3680         0.029827   
     53. D(H   6,C   3,C   1,H   4)    -49.0165         0.014274   
     54. D(C   5,C   3,C   1,C   0)     11.6374         0.010508   
     55. D(H   9,C   5,C   3,H   6)    -26.5908         0.016995   
     56. D(C   8,C   5,C   3,H   7)    100.3192         0.017806   
     57. D(C   8,C   5,C   3,H   6)   -139.9059         0.018872   
     58. D(C   8,C   5,C   3,C   1)    -18.3031         0.009568   
     59. D(H   9,C   5,C   3,H   7)   -146.3657         0.019227   
     60. D(H   9,C   5,C   3,C   1)     95.0119         0.016993   
     61. D(H  11,C   8,C   5,H  10)    -90.9329         0.015620   
     62. D(H  11,C   8,C   5,H   9)     26.5886         0.015924   
     63. D(H  11,C   8,C   5,C   3)    139.9093         0.015619   
     64. D(C   0,C   8,C   5,H   9)    -95.0211         0.016673   
     65. D(C   0,C   8,C   5,C   3)     18.2996         0.008943   
     66. D(H  12,C   8,C   0,C   1)    107.3711         0.029188   
     67. D(C   0,C   8,C   5,H  10)    147.4574         0.017450   
     68. D(H  11,C   8,C   0,H   2)     49.0181         0.014476   
     69. D(H  11,C   8,C   0,C   1)   -132.6249         0.018541   
     70. D(C   5,C   8,C   0,H   2)    170.0163         0.008385   
     71. D(C   5,C   8,C   0,C   1)    -11.6267         0.009854   
     72. D(H  14,H   9,C   5,C   3)    122.4583         0.011130   
     73. D(O  13,H   9,C   5,H  10)     -3.6048         0.019466   
     74. D(O  13,H   9,C   5,C   8)   -126.7328         0.012594   
     75. D(H  14,H   9,C   5,C   8)   -123.8054         0.010704   
     76. D(O  13,H   9,C   5,C   3)    119.5308         0.014125   
     77. D(H  14,O  13,H   9,C   5)      3.3576         0.000793   
     78. D(O  13,H  14,H   9,C   5)   -179.4753         0.000203   
    -----------------------------------------------------------------

Number of atoms                         .... 15
Number of degrees of freedom            .... 78


         *************************************************************
         *                GEOMETRY OPTIMIZATION CYCLE   1            *
         *************************************************************
---------------------------------
CARTESIAN COORDINATES (ANGSTROEM)
---------------------------------
  C     -1.439029   -0.667712   -0.549616
  C     -1.437587    0.667066   -0.550348
  H     -2.099542   -1.287730   -1.142377
  C     -0.425165    1.232405    0.414199
  H     -2.096591    1.287867   -1.143979
  C      0.405839   -0.001535    0.791219
  H      0.188077    2.022821   -0.024582
  H     -0.921583    1.663390    1.292275
  C     -0.427732   -1.234209    0.415423
  H      1.329900   -0.002938    0.083282
  H      0.797165   -0.001452    1.808264
  H      0.183642   -2.026531   -0.022540
  H     -0.924988   -1.663219    1.294005
  O      2.538250    0.003895   -0.670899
  H      3.133571    0.008101    0.093337

----------------------------
CARTESIAN COORDINATES (A.U.)
----------------------------
  NO LB      ZA    FRAG     MASS         X           Y           Z
   0 C     6.0000    0    12.011   -2.719370   -1.261792   -1.038624
   1 C     6.0000    0    12.011   -2.716645    1.260572   -1.040006
   2 H     1.0000    0     1.008   -3.967560   -2.433456   -2.158780
   3 C     6.0000    0    12.011   -0.803445    2.328908    0.782723
   4 H     1.0000    0     1.008   -3.961983    2.433717   -2.161806
   5 C     6.0000    0    12.011    0.766924   -0.002901    1.495187
   6 H     1.0000    0     1.008    0.355414    3.822577   -0.046453
   7 H     1.0000    0     1.008   -1.741539    3.143352    2.442046
   8 C     6.0000    0    12.011   -0.808296   -2.332317    0.785036
   9 H     1.0000    0     1.008    2.513147   -0.005552    0.157381
  10 H     1.0000    0     1.008    1.506424   -0.002744    3.417123
  11 H     1.0000    0     1.008    0.347033   -3.829588   -0.042594
  12 H     1.0000    0     1.008   -1.747974   -3.143028    2.445315
  13 O     8.0000    0    15.999    4.796596    0.007360   -1.267816
  14 H     1.0000    0     1.008    5.921592    0.015309    0.176381

--------------------------------
INTERNAL COORDINATES (ANGSTROEM)
--------------------------------
 C      0   0   0     0.000000000000     0.00000000     0.00000000
 C      1   0   0     1.334778733361     0.00000000     0.00000000
 H      1   2   0     1.082620592513   124.96386517     0.00000000
 C      2   1   3     1.508295838598   112.03628988   178.31158041
 H      2   1   3     1.082625743800   124.96419469     0.00000000
 C      4   2   1     1.534704877922   102.66163737    11.63740276
 H      4   2   1     1.092406333823   113.02610954   132.61688610
 H      4   2   1     1.096902955174   110.81872151   252.63201772
 C      1   2   3     1.508290589428   112.03760835   181.68187860
 H      6   4   2     1.164072698807   106.34376842    95.01192230
 H      6   4   2     1.089732058523   115.06591007   212.54057912
 H      9   1   2     1.092412022390   113.02565100   227.37506987
 H      9   1   2     1.096913135640   110.81903381   107.37112479
 O     10   6   4     1.424410487986   174.50299877   119.53080511
 H     14  10   6     0.968752864371    95.94882623     3.35764100

---------------------------
INTERNAL COORDINATES (A.U.)
---------------------------
 C      0   0   0     0.000000000000     0.00000000     0.00000000
 C      1   0   0     2.522366255435     0.00000000     0.00000000
 H      1   2   0     2.045856426794   124.96386517     0.00000000
 C      2   1   3     2.850266063884   112.03628988   178.31158041
 H      2   1   3     2.045866161315   124.96419469     0.00000000
 C      4   2   1     2.900171915665   102.66163737    11.63740276
 H      4   2   1     2.064348797887   113.02610954   132.61688610
 H      4   2   1     2.072846180768   110.81872151   252.63201772
 C      1   2   3     2.850256144389   112.03760835   181.68187860
 H      6   4   2     2.199778600721   106.34376842    95.01192230
 H      6   4   2     2.059295149962   115.06591007   212.54057912
 H      9   1   2     2.064359547720   113.02565100   227.37506987
 H      9   1   2     2.072865419061   110.81903381   107.37112479
 O     10   6   4     2.691745724578   174.50299877   119.53080511
 H     14  10   6     1.830677605114    95.94882623     3.35764100

---------------------
BASIS SET INFORMATION
---------------------
There are 3 groups of distinct atoms

 Group   1 Type C   : 11s6p2d1f contracted to 5s3p2d1f pattern {62111/411/11/1}
 Group   2 Type H   : 5s2p1d contracted to 3s2p1d pattern {311/11/1}
 Group   3 Type O   : 11s6p2d1f contracted to 5s3p2d1f pattern {62111/411/11/1}

Atom   0C    basis set group =>   1
Atom   1C    basis set group =>   1
Atom   2H    basis set group =>   2
Atom   3C    basis set group =>   1
Atom   4H    basis set group =>   2
Atom   5C    basis set group =>   1
Atom   6H    basis set group =>   2
Atom   7H    basis set group =>   2
Atom   8C    basis set group =>   1
Atom   9H    basis set group =>   2
Atom  10H    basis set group =>   2
Atom  11H    basis set group =>   2
Atom  12H    basis set group =>   2
Atom  13O    basis set group =>   3
Atom  14H    basis set group =>   2
---------------------------------
AUXILIARY/J BASIS SET INFORMATION
---------------------------------
There are 3 groups of distinct atoms

 Group   1 Type C   : 12s5p4d2f1g contracted to 6s4p3d1f1g pattern {711111/2111/211/2/1}
 Group   2 Type H   : 5s2p1d contracted to 3s1p1d pattern {311/2/1}
 Group   3 Type O   : 12s5p4d2f1g contracted to 6s4p3d1f1g pattern {711111/2111/211/2/1}

Atom   0C    basis set group =>   1
Atom   1C    basis set group =>   1
Atom   2H    basis set group =>   2
Atom   3C    basis set group =>   1
Atom   4H    basis set group =>   2
Atom   5C    basis set group =>   1
Atom   6H    basis set group =>   2
Atom   7H    basis set group =>   2
Atom   8C    basis set group =>   1
Atom   9H    basis set group =>   2
Atom  10H    basis set group =>   2
Atom  11H    basis set group =>   2
Atom  12H    basis set group =>   2
Atom  13O    basis set group =>   3
Atom  14H    basis set group =>   2
---------------------------------
AUXILIARY/C BASIS SET INFORMATION
---------------------------------
There are 3 groups of distinct atoms

 Group   1 Type C   : 8s6p5d3f1g contracted to 8s6p4d3f1g pattern {11111111/111111/2111/111/1}
 Group   2 Type H   : 4s3p2d1f contracted to 4s3p2d1f pattern {1111/111/11/1}
 Group   3 Type O   : 8s6p5d3f1g contracted to 8s6p4d3f1g pattern {11111111/111111/2111/111/1}

Atom   0C    basis set group =>   1
Atom   1C    basis set group =>   1
Atom   2H    basis set group =>   2
Atom   3C    basis set group =>   1
Atom   4H    basis set group =>   2
Atom   5C    basis set group =>   1
Atom   6H    basis set group =>   2
Atom   7H    basis set group =>   2
Atom   8C    basis set group =>   1
Atom   9H    basis set group =>   2
Atom  10H    basis set group =>   2
Atom  11H    basis set group =>   2
Atom  12H    basis set group =>   2
Atom  13O    basis set group =>   3
Atom  14H    basis set group =>   2


           ************************************************************
           *        Program running with 8 parallel MPI-processes     *
           *              working on a common directory               *
           ************************************************************
------------------------------------------------------------------------------
                             ORCA STARTUP CALCULATIONS
                           -- RI-GTO INTEGRALS CHOSEN --
------------------------------------------------------------------------------
------------------------------------------------------------------------------
                   ___                                                        
                  /   \      - P O W E R E D   B Y -                         
                 /     \                                                     
                 |  |  |   _    _      __       _____    __    __             
                 |  |  |  | |  | |    /  \     |  _  \  |  |  /  |          
                  \  \/   | |  | |   /    \    | | | |  |  | /  /          
                 / \  \   | |__| |  /  /\  \   | |_| |  |  |/  /          
                |  |  |   |  __  | /  /__\  \  |    /   |      \           
                |  |  |   | |  | | |   __   |  |    \   |  |\   \          
                \     /   | |  | | |  |  |  |  | |\  \  |  | \   \       
                 \___/    |_|  |_| |__|  |__|  |_| \__\ |__|  \__/        
                                                                              
                      - O R C A' S   B I G   F R I E N D -                    
                                      &                                       
                       - I N T E G R A L  F E E D E R -                       
                                                                              
 v1 FN, 2020, v2 2021, v3 2022-2024                                           
------------------------------------------------------------------------------


----------------------
SHARK INTEGRAL PACKAGE
----------------------

Number of atoms                             ...     15
Number of basis functions                   ...    312
Number of shells                            ...    120
Maximum angular momentum                    ...      3
Integral batch strategy                     ... SHARK/LIBINT Hybrid
RI-J (if used) integral strategy            ... SPLIT-RIJ (Revised 2003 algorithm where possible)
Printlevel                                  ...      1
Contraction scheme used                     ... SEGMENTED contraction
Prescreening option                         ... SCHWARTZ
   Thresh                                   ... 1.000e-12
   Tcut                                     ... 1.000e-14
   Tpresel                                  ... 1.000e-14 
Coulomb Range Separation                    ... NOT USED
Exchange Range Separation                   ... NOT USED
Multipole approximations                    ... NOT USED
Finite Nucleus Model                        ... NOT USED
CABS basis                                  ... NOT available
Auxiliary Coulomb fitting basis             ... AVAILABLE
   # of basis functions in Aux-J            ...    393
   # of shells in Aux-J                     ...    135
   Maximum angular momentum in Aux-J        ...      4
Auxiliary J/K fitting basis                 ... NOT available
Auxiliary Correlation fitting basis         ... AVAILABLE
   # of basis functions in Aux-C            ...    726
   # of shells in Aux-C                     ...    222
   Maximum angular momentum in Aux-C        ...      4
Auxiliary 'external' fitting basis          ... NOT available

Checking pre-screening integrals            ... done (  0.0 sec) Dimension = 120
   => SHARK Basis and OBASIS are compatible. Storing Pre-screening
Shell pair information
Shell pair cut-off parameter TPreSel        ...   1.0e-14
Total number of shell pairs                 ...      7260
Shell pairs after pre-screening             ...      6905
Total number of primitive shell pairs       ...     18687
Primitive shell pairs kept                  ...     14431
          la=0 lb=0:   1541 shell pairs
          la=1 lb=0:   1957 shell pairs
          la=1 lb=1:    645 shell pairs
          la=2 lb=0:   1128 shell pairs
          la=2 lb=1:    734 shell pairs
          la=2 lb=2:    219 shell pairs
          la=3 lb=0:    326 shell pairs
          la=3 lb=1:    212 shell pairs
          la=3 lb=2:    122 shell pairs
          la=3 lb=3:     21 shell pairs

Checking whether 4 symmetric matrices of dimension 312 fit in memory
:Max Core in MB      =   6000.00
 MB in use           =     11.94
 MB left             =   5988.06
 MB needed           =      1.49
 Data fit in memory  = YES
Calculating RI/J V-Matrix + Cholesky decomp.... done (  0.1 sec)
Calculating RI/C V-Matrix + Cholesky decomp.... done (  0.1 sec)
Calculating Nuclear repulsion               ... done (  0.0 sec) ENN=    229.400295734598 Eh

Diagonalization of the overlap matrix:
Smallest eigenvalue                        ... 8.445e-05
Time for diagonalization                   ...    0.024 sec
Threshold for overlap eigenvalues          ... 1.000e-07
Number of eigenvalues below threshold      ... 0
Time for construction of square roots      ...    0.085 sec
Total time needed                          ...    0.123 sec

-------------------
DFT GRID GENERATION
-------------------

General Integration Accuracy     IntAcc      ... 4.959
Radial Grid Type                 RadialGrid  ... OptM3 with GC (2021)
Angular Grid (max. ang.)         AngularGrid ... 6 (Lebedev-590)
Angular grid pruning method      GridPruning ... 4 (adaptive)
Weight generation scheme         WeightScheme... mBecke (2022)
Basis function cutoff            BFCut       ... 1.0000e-12
Integration weight cutoff        WCut        ... 1.0000e-14
Partially contracted basis set               ... off
Rotationally invariant grid construction     ... off
Angular grids for H and He will be reduced by one unit

Total number of grid points                  ...   164464
Total number of batches                      ...     2578
Average number of points per batch           ...       63
Average number of grid points per atom       ...    10964

--------------------
COSX GRID GENERATION
--------------------

GRIDX 1
-------
General Integration Accuracy     IntAcc      ... 4.020
Radial Grid Type                 RadialGrid  ... OptM3 with GC (2021)
Angular Grid (max. ang.)         AngularGrid ... 2 (Lebedev-110)
Angular grid pruning method      GridPruning ... 4 (adaptive)
Weight generation scheme         WeightScheme... mBecke (2022)
Basis function cutoff            BFCut       ... 1.0000e-12
Integration weight cutoff        WCut        ... 1.0000e-14
Partially contracted basis set               ... on
Rotationally invariant grid construction     ... off
Angular grids for H and He will be reduced by one unit

Total number of grid points                  ...    17694
Total number of batches                      ...      147
Average number of points per batch           ...      120
Average number of grid points per atom       ...     1180
UseSFitting                                  ... on

GRIDX 2
-------
General Integration Accuracy     IntAcc      ... 4.338
Radial Grid Type                 RadialGrid  ... OptM3 with GC (2021)
Angular Grid (max. ang.)         AngularGrid ... 3 (Lebedev-194)
Angular grid pruning method      GridPruning ... 4 (adaptive)
Weight generation scheme         WeightScheme... mBecke (2022)
Basis function cutoff            BFCut       ... 1.0000e-12
Integration weight cutoff        WCut        ... 1.0000e-14
Partially contracted basis set               ... on
Rotationally invariant grid construction     ... off
Angular grids for H and He will be reduced by one unit

Total number of grid points                  ...    38753
Total number of batches                      ...      312
Average number of points per batch           ...      124
Average number of grid points per atom       ...     2584
UseSFitting                                  ... on

GRIDX 3
-------
General Integration Accuracy     IntAcc      ... 4.871
Radial Grid Type                 RadialGrid  ... OptM3 with GC (2021)
Angular Grid (max. ang.)         AngularGrid ... 4 (Lebedev-302)
Angular grid pruning method      GridPruning ... 4 (adaptive)
Weight generation scheme         WeightScheme... mBecke (2022)
Basis function cutoff            BFCut       ... 1.0000e-12
Integration weight cutoff        WCut        ... 1.0000e-14
Partially contracted basis set               ... on
Rotationally invariant grid construction     ... off
Angular grids for H and He will be reduced by one unit

Total number of grid points                  ...    76027
Total number of batches                      ...      600
Average number of points per batch           ...      126
Average number of grid points per atom       ...     5068
UseSFitting                                  ... on
Grids setup in   6.2 sec
Initializing property integral containers    ... done (  0.1 sec)

SHARK setup successfully completed in   7.3 seconds

Maximum memory used throughout the entire STARTUP-calculation: 41.7 MB


           ************************************************************
           *        Program running with 8 parallel MPI-processes     *
           *              working on a common directory               *
           ************************************************************
-------------------------------------------------------------------------------
                                 ORCA GUESS
                   Start orbitals & Density for SCF / CASSCF
-------------------------------------------------------------------------------

------------
SCF SETTINGS
------------
Hamiltonian:
 Density Functional     Method          .... DFT(GTOs)
 Exchange Functional    Exchange        .... PBE
   PBE kappa parameter   XKappa         ....  0.804000
   PBE mue parameter    XMuePBE         ....  0.219520
 Correlation Functional Correlation     .... P86
 LDA part of GGA corr.  LDAOpt          .... VWN-5
 Gradients option       PostSCFGGA      .... off
 Hybrid DFT is turned on
   Fraction HF Exchange ScalHFX         ....  0.690000
   Scaling of DF-GGA-X  ScalDFX         ....  0.310000
   Scaling of DF-GGA-C  ScalDFC         ....  0.422400
   Scaling of DF-LDA-C  ScalLDAC        ....  0.422400
   Perturbative correction              ....  1.000000
 RI-approximation to the Coulomb term is turned on
   Number of AuxJ basis functions       .... 393
   RIJ-COSX (HFX calculated with COS-X)).... on


General Settings:
 Integral files         IntName         .... opt
 Hartree-Fock type      HFTyp           .... UHF
 Total Charge           Charge          ....    0
 Multiplicity           Mult            ....    2
 Number of Electrons    NEL             ....   47
 Basis Dimension        Dim             ....  312
 Nuclear Repulsion      ENuc            ....    229.4002957346 Eh

Convergence Acceleration:
 AO-DIIS                CNVDIIS         .... on
   Start iteration      DIISMaxIt       ....    12
   Startup error        DIISStart       ....  0.200000
   # of expansion vecs  DIISMaxEq       ....     5
   Bias factor          DIISBfac        ....   1.050
   Max. coefficient     DIISMaxC        ....  10.000
 MO-DIIS                CNVKDIIS        .... off
 Trust-Rad. Augm. Hess. CNVTRAH         .... auto
   Auto Start mean grad. ratio tolernc. ....  1.125000
   Auto Start start iteration           ....    50
   Auto Start num. interpolation iter.  ....    10
   Max. Number of Micro iterations      ....    24
   Max. Number of Macro iterations      .... Maxiter - #DIIS iter
   Number of Davidson start vectors     ....     2
   Converg. threshold    (grad. norm)   ....   2.000e-06
   Grad. Scal. Fac. for Micro threshold ....   0.100
   Minimum threshold for Micro iter.    ....   1.000e-02
   NR start threshold (gradient norm)   ....   1.000e-04
   Initial trust radius                 ....   0.400
   Minimum AH scaling param. (alpha)    ....   1.000
   Maximum AH scaling param. (alpha)    .... 1000.000
   Quad. conv. algorithm                .... NR
   White noise on init. David. guess    .... on
   Maximum white noise                  ....   0.010
   Pseudo random numbers                .... off
   Inactive MOs                         .... canonical
   Orbital update algorithm             .... Taylor
   Preconditioner                       .... Diag
   Full preconditioner red. dimension   ....   250
 SOSCF                 CNVSOSCF           .... on
   Start iteration     SOSCFMaxIt         ....   150
   Startup grad/error  SOSCFStart         ....  0.003300
   Hessian update      SOSCFHessUp        .... L-BFGS
   Autom. constraints  SOSCFAutoConstrain .... off
 Level Shifting         CNVShift        .... on
   Level shift para.    LevelShift      ....    0.2500
   Turn off err/grad.   ShiftErr        ....    0.0010
 Zerner damping         CNVZerner       .... off
 Static damping         CNVDamp         .... on
   Fraction old density DampFac         ....    0.7000
   Max. Damping (<1)    DampMax         ....    0.9800
   Min. Damping (>=0)   DampMin         ....    0.0000
   Turn off err/grad.   DampErr         ....    0.1000

SCF Procedure:
 Maximum # iterations   MaxIter         ....   125
 SCF integral mode      SCFMode         .... Direct
   Integral package                     .... SHARK and LIBINT hybrid scheme
 Reset frequency        DirectResetFreq ....    20
 Integral Threshold     Thresh          ....  1.000e-12 Eh
 Primitive CutOff       TCut            ....  1.000e-14 Eh

Convergence Tolerance:
 Convergence Check Mode ConvCheckMode   .... Total+1el-Energy
 Convergence forced     ConvForced      .... 0
 Energy Change          TolE            ....  1.000e-09 Eh
 1-El. energy change                    ....  1.000e-06 Eh
 Orbital Gradient       TolG            ....  2.000e-06
 Orbital Rotation angle TolX            ....  2.000e-06
 DIIS Error             TolErr          ....  1.000e-08

------------------------------
INITIAL GUESS: MODEL POTENTIAL
------------------------------
Loading Hartree-Fock densities                     ... done
Calculating cut-offs                               ... done
Initializing the effective Hamiltonian             ... done
Setting up the integral package (SHARK)            ... done
Starting the Coulomb interaction                   ... done (   0.2 sec)
Making the grid                                    ... done (   0.3 sec)
Mapping shells                                     ... done
Starting the XC term evaluation                    ... done (   0.1 sec)
  promolecular density results
     # of electrons  =     46.996948591
     EX              =    -36.321556306
     EC              =      0.020701976
     EX+EC           =    -36.300854330
Transforming the Hamiltonian                       ... done (   0.0 sec)
Diagonalizing the Hamiltonian                      ... done (   0.0 sec)
Back transforming the eigenvectors                 ... done (   0.1 sec)
Now organizing SCF variables                       ... done
                      ------------------
                      INITIAL GUESS DONE (   0.9 sec)
                      ------------------
             **** ENERGY FILE WAS UPDATED (opt.en.tmp) ****
Finished Guess after   3.4 sec
Maximum memory used throughout the entire GUESS-calculation: 17.9 MB


           ************************************************************
           *        Program running with 8 parallel MPI-processes     *
           *              working on a common directory               *
           ************************************************************

-------------------------------------------------------------------------------------------
                                      ORCA LEAN-SCF
                              memory conserving SCF solver
-------------------------------------------------------------------------------------------

----------------------------------------D-I-I-S--------------------------------------------
Iteration    Energy (Eh)           Delta-E    RMSDP     MaxDP     DIISErr   Damp  Time(sec)
-------------------------------------------------------------------------------------------
               ***  Starting incremental Fock matrix formation  ***
    1    -269.8318776579574205     0.00e+00  1.96e-03  2.98e-02  1.49e-01  0.700  10.8
    2    -269.9221060451674248    -9.02e-02  1.48e-03  2.25e-02  7.69e-02  0.700   6.2
                               ***Turning on AO-DIIS***
    3    -269.9701683397513534    -4.81e-02  5.88e-04  9.21e-03  3.77e-02  0.700   6.7
    4    -270.0012687931191522    -3.11e-02  1.70e-03  2.91e-02  2.86e-02  0.000   6.5
    5    -270.0811177005831496    -7.98e-02  7.31e-04  1.58e-02  1.49e-02  0.000   6.3
    6    -270.0865097018680672    -5.39e-03  6.67e-04  1.22e-02  9.26e-03  0.000   5.5
    7    -270.0899445157177752    -3.43e-03  3.44e-04  5.06e-03  6.36e-03  0.000   6.0
                              *** Initializing SOSCF ***
---------------------------------------S-O-S-C-F--------------------------------------
Iteration    Energy (Eh)           Delta-E    RMSDP     MaxDP     MaxGrad    Time(sec)
--------------------------------------------------------------------------------------
    8    -270.0912763636091540    -1.33e-03  2.53e-04  3.12e-03  2.98e-03     6.0
               *** Restarting incremental Fock matrix formation ***
    9    -270.0918620827708310    -5.86e-04  1.71e-04  2.30e-03  5.59e-03    10.9
   10    -270.0920879803555863    -2.26e-04  2.50e-04  2.99e-03  1.97e-03     8.8
   11    -270.0921892765943539    -1.01e-04  5.28e-05  8.91e-04  1.25e-03     8.8
   12    -270.0922109324540088    -2.17e-05  2.84e-05  4.97e-04  5.92e-04     8.3
   13    -270.0922160010790094    -5.07e-06  1.30e-05  1.84e-04  2.11e-04     8.6
   14    -270.0922168355539270    -8.34e-07  4.66e-06  7.58e-05  9.16e-05     8.6
   15    -270.0922169482067829    -1.13e-07  2.19e-06  4.95e-05  4.46e-05     8.0
   16    -270.0922169901347161    -4.19e-08  1.23e-06  1.83e-05  1.24e-05     8.5
   17    -270.0922169976289524    -7.49e-09  4.97e-07  6.24e-06  4.79e-06     7.6
   18    -270.0922169985490200    -9.20e-10  2.70e-07  4.45e-06  4.29e-06     7.2
                 **** Energy Check signals convergence ****

               *****************************************************
               *                     SUCCESS                       *
               *           SCF CONVERGED AFTER  18 CYCLES          *
               *****************************************************

Recomputing exchange energy using gridx3       ... done (   11.014 sec)
Old exchange energy                            :    -25.773488806 Eh
New exchange energy                            :    -25.773498259 Eh
Exchange energy change after final integration :     -0.000009453 Eh
Total energy after final integration           :   -270.092226452 Eh
             **** ENERGY FILE WAS UPDATED (opt.en.tmp) ****

----------------
TOTAL SCF ENERGY
----------------

Total Energy       :       -270.09222645209366 Eh           -7349.58313 eV

Components:
Nuclear Repulsion  :        229.40029573459847 Eh            6242.29940 eV
Electronic Energy  :       -499.49251273360613 Eh          -13591.88227 eV
One Electron Energy:       -820.46605379652192 Eh          -22326.01636 eV
Two Electron Energy:        320.97354106291579 Eh            8734.13409 eV

Virial components:
Potential Energy   :       -539.50907444668974 Eh          -14680.78827 eV
Kinetic Energy     :        269.41684799459608 Eh            7331.20515 eV
Virial Ratio       :          2.00250681597133

DFT components:
N(Alpha)           :       24.000004280318 electrons
N(Beta)            :       23.000003265710 electrons
N(Total)           :       47.000007546028 electrons
E(X)               :      -11.523033749523 Eh       
E(C)               :       -0.711430378756 Eh       
E(XC)              :      -12.234464128279 Eh       

---------------
SCF CONVERGENCE
---------------

  Last Energy change         ...    9.2007e-10  Tolerance :   1.0000e-09
  Last MAX-Density change    ...    4.4540e-06  Tolerance :   1.0000e-08
  Last RMS-Density change    ...    2.6965e-07  Tolerance :   1.0000e-09
  Last DIIS Error            ...    2.9809e-03  Tolerance :   1.0000e-08
  Last Orbital Gradient      ...    4.2895e-06  Tolerance :   2.0000e-06
  Last Orbital Rotation      ...    1.7396e-05  Tolerance :   2.0000e-06


----------------------
UHF SPIN CONTAMINATION
----------------------

Warning: in a DFT calculation there is little theoretical justification to 
         calculate <S**2> as in Hartree-Fock theory. We will do it anyways
         but you should keep in mind that the values have only limited relevance

Expectation value of <S**2>     :     0.768546
Ideal value S*(S+1) for S=0.5   :     0.750000
Deviation                       :     0.018546

----------------
ORBITAL ENERGIES
----------------
                 SPIN UP ORBITALS
  NO   OCC          E(Eh)            E(eV) 
   0   1.0000     -20.053163      -545.6743 
   1   1.0000     -10.820241      -294.4337 
   2   1.0000     -10.810915      -294.1799 
   3   1.0000     -10.810871      -294.1788 
   4   1.0000     -10.808668      -294.1188 
   5   1.0000     -10.807273      -294.0809 
   6   1.0000      -1.234525       -33.5931 
   7   1.0000      -1.027349       -27.9556 
   8   1.0000      -0.874364       -23.7926 
   9   1.0000      -0.865471       -23.5506 
  10   1.0000      -0.715789       -19.4776 
  11   1.0000      -0.652993       -17.7689 
  12   1.0000      -0.624494       -16.9934 
  13   1.0000      -0.609216       -16.5776 
  14   1.0000      -0.579105       -15.7583 
  15   1.0000      -0.539995       -14.6940 
  16   1.0000      -0.498942       -13.5769 
  17   1.0000      -0.477704       -12.9990 
  18   1.0000      -0.460814       -12.5394 
  19   1.0000      -0.443604       -12.0711 
  20   1.0000      -0.439916       -11.9707 
  21   1.0000      -0.431503       -11.7418 
  22   1.0000      -0.385428       -10.4880 
  23   1.0000      -0.304784        -8.2936 
  24   0.0000       0.091861         2.4997 
  25   0.0000       0.104558         2.8452 
  26   0.0000       0.119345         3.2475 
  27   0.0000       0.141296         3.8449 
  28   0.0000       0.146264         3.9800 
  29   0.0000       0.160251         4.3606 
  30   0.0000       0.174642         4.7522 
  31   0.0000       0.189677         5.1614 
  32   0.0000       0.190747         5.1905 
  33   0.0000       0.208312         5.6685 
  34   0.0000       0.242254         6.5921 

                 SPIN DOWN ORBITALS
  NO   OCC          E(Eh)            E(eV) 
   0   1.0000     -20.022532      -544.8408 
   1   1.0000     -10.812605      -294.2259 
   2   1.0000     -10.811279      -294.1899 
   3   1.0000     -10.811189      -294.1874 
   4   1.0000     -10.808660      -294.1186 
   5   1.0000     -10.807264      -294.0806 
   6   1.0000      -1.132604       -30.8197 
   7   1.0000      -1.022321       -27.8188 
   8   1.0000      -0.865035       -23.5388 
   9   1.0000      -0.863419       -23.4948 
  10   1.0000      -0.699363       -19.0306 
  11   1.0000      -0.652576       -17.7575 
  12   1.0000      -0.609785       -16.5931 
  13   1.0000      -0.582689       -15.8558 
  14   1.0000      -0.548756       -14.9324 
  15   1.0000      -0.495615       -13.4864 
  16   1.0000      -0.476516       -12.9667 
  17   1.0000      -0.441695       -12.0191 
  18   1.0000      -0.439026       -11.9465 
  19   1.0000      -0.433329       -11.7915 
  20   1.0000      -0.423934       -11.5358 
  21   1.0000      -0.422198       -11.4886 
  22   1.0000      -0.306450        -8.3389 
  23   0.0000      -0.008049        -0.2190 
  24   0.0000       0.095756         2.6057 
  25   0.0000       0.104787         2.8514 
  26   0.0000       0.121949         3.3184 
  27   0.0000       0.141713         3.8562 
  28   0.0000       0.147294         4.0081 
  29   0.0000       0.161928         4.4063 
  30   0.0000       0.174683         4.7534 
  31   0.0000       0.191191         5.2026 
  32   0.0000       0.195384         5.3167 
  33   0.0000       0.210717         5.7339 
*Only the first 10 virtual orbitals were printed.

                    ********************************
                    * MULLIKEN POPULATION ANALYSIS *
                    ********************************

--------------------------------------------
MULLIKEN ATOMIC CHARGES AND SPIN POPULATIONS
--------------------------------------------
   0 C :   -0.166987    0.000871
   1 C :   -0.167025    0.000859
   2 H :    0.102838    0.000226
   3 C :   -0.066595   -0.018744
   4 H :    0.102842    0.000220
   5 C :   -0.117327    0.298610
   6 H :    0.078105    0.008339
   7 H :    0.067637    0.012018
   8 C :   -0.067361   -0.018781
   9 H :    0.081482   -0.104771
  10 H :    0.082875   -0.007797
  11 H :    0.078153    0.008346
  12 H :    0.067744    0.012088
  13 O :   -0.303572    0.832620
  14 H :    0.227192   -0.024103
Sum of atomic charges         :    0.0000000
Sum of atomic spin populations:    1.0000000

-----------------------------------------------------
MULLIKEN REDUCED ORBITAL CHARGES AND SPIN POPULATIONS
-----------------------------------------------------
CHARGE
  0 C s       :     3.169636  s :     3.169636
      pz      :     0.951934  p :     2.881350
      px      :     0.965462
      py      :     0.963954
      dz2     :     0.011531  d :     0.108137
      dxz     :     0.009669
      dyz     :     0.032650
      dx2y2   :     0.019602
      dxy     :     0.034684
      f0      :     0.000985  f :     0.007864
      f+1     :     0.000906
      f-1     :     0.000544
      f+2     :     0.001817
      f-2     :     0.001005
      f+3     :     0.001823
      f-3     :     0.000784

  1 C s       :     3.169678  s :     3.169678
      pz      :     0.951958  p :     2.881337
      px      :     0.965362
      py      :     0.964018
      dz2     :     0.011519  d :     0.108146
      dxz     :     0.009673
      dyz     :     0.032679
      dx2y2   :     0.019623
      dxy     :     0.034653
      f0      :     0.000984  f :     0.007864
      f+1     :     0.000907
      f-1     :     0.000544
      f+2     :     0.001817
      f-2     :     0.001005
      f+3     :     0.001823
      f-3     :     0.000784

  2 H s       :     0.857871  s :     0.857871
      pz      :     0.013286  p :     0.037335
      px      :     0.013693
      py      :     0.010356
      dz2     :     0.000345  d :     0.001956
      dxz     :     0.000379
      dyz     :     0.000353
      dx2y2   :     0.000508
      dxy     :     0.000371

  3 C s       :     3.082135  s :     3.082135
      pz      :     0.967957  p :     2.865133
      px      :     0.931633
      py      :     0.965543
      dz2     :     0.018911  d :     0.113154
      dxz     :     0.024248
      dyz     :     0.024663
      dx2y2   :     0.015477
      dxy     :     0.029855
      f0      :     0.000534  f :     0.006173
      f+1     :     0.000923
      f-1     :     0.000769
      f+2     :     0.000638
      f-2     :     0.001384
      f+3     :     0.000929
      f-3     :     0.000995

  4 H s       :     0.857865  s :     0.857865
      pz      :     0.013292  p :     0.037338
      px      :     0.013682
      py      :     0.010364
      dz2     :     0.000345  d :     0.001956
      dxz     :     0.000379
      dyz     :     0.000353
      dx2y2   :     0.000508
      dxy     :     0.000371

  5 C s       :     3.123963  s :     3.123963
      pz      :     1.005558  p :     2.886708
      px      :     0.970251
      py      :     0.910899
      dz2     :     0.020898  d :     0.100423
      dxz     :     0.020666
      dyz     :     0.015090
      dx2y2   :     0.023553
      dxy     :     0.020216
      f0      :     0.000825  f :     0.006233
      f+1     :     0.000719
      f-1     :     0.000582
      f+2     :     0.000581
      f-2     :     0.001010
      f+3     :     0.001285
      f-3     :     0.001231

  6 H s       :     0.879888  s :     0.879888
      pz      :     0.010612  p :     0.039905
      px      :     0.012638
      py      :     0.016655
      dz2     :     0.000327  d :     0.002102
      dxz     :     0.000307
      dyz     :     0.000411
      dx2y2   :     0.000596
      dxy     :     0.000461

  7 H s       :     0.890938  s :     0.890938
      pz      :     0.016539  p :     0.039341
      px      :     0.010692
      py      :     0.012110
      dz2     :     0.000611  d :     0.002084
      dxz     :     0.000468
      dyz     :     0.000493
      dx2y2   :     0.000233
      dxy     :     0.000278

  8 C s       :     3.082830  s :     3.082830
      pz      :     0.968009  p :     2.865198
      px      :     0.931537
      py      :     0.965652
      dz2     :     0.018946  d :     0.113161
      dxz     :     0.024270
      dyz     :     0.024603
      dx2y2   :     0.015507
      dxy     :     0.029835
      f0      :     0.000535  f :     0.006173
      f+1     :     0.000924
      f-1     :     0.000769
      f+2     :     0.000637
      f-2     :     0.001383
      f+3     :     0.000931
      f-3     :     0.000994

  9 H s       :     0.853817  s :     0.853817
      pz      :     0.022455  p :     0.060856
      px      :     0.023646
      py      :     0.014754
      dz2     :     0.000603  d :     0.003845
      dxz     :     0.001262
      dyz     :     0.000318
      dx2y2   :     0.000888
      dxy     :     0.000774

 10 H s       :     0.875205  s :     0.875205
      pz      :     0.019216  p :     0.039807
      px      :     0.011172
      py      :     0.009419
      dz2     :     0.000617  d :     0.002113
      dxz     :     0.000597
      dyz     :     0.000678
      dx2y2   :     0.000059
      dxy     :     0.000162

 11 H s       :     0.879832  s :     0.879832
      pz      :     0.010606  p :     0.039914
      px      :     0.012606
      py      :     0.016701
      dz2     :     0.000327  d :     0.002102
      dxz     :     0.000306
      dyz     :     0.000412
      dx2y2   :     0.000596
      dxy     :     0.000462

 12 H s       :     0.890841  s :     0.890841
      pz      :     0.016544  p :     0.039332
      px      :     0.010697
      py      :     0.012091
      dz2     :     0.000612  d :     0.002083
      dxz     :     0.000468
      dyz     :     0.000493
      dx2y2   :     0.000232
      dxy     :     0.000278

 13 O s       :     3.875574  s :     3.875574
      pz      :     1.309640  p :     4.413511
      px      :     1.159952
      py      :     1.943919
      dz2     :     0.002731  d :     0.014049
      dxz     :     0.008193
      dyz     :     0.001181
      dx2y2   :     0.001768
      dxy     :     0.000175
      f0      :     0.000018  f :     0.000439
      f+1     :     0.000056
      f-1     :     0.000033
      f+2     :     0.000161
      f-2     :     0.000013
      f+3     :     0.000098
      f-3     :     0.000060

 14 H s       :     0.683805  s :     0.683805
      pz      :     0.023595  p :     0.080794
      px      :     0.020249
      py      :     0.036949
      dz2     :     0.001790  d :     0.008210
      dxz     :     0.002292
      dyz     :     0.002101
      dx2y2   :     0.000725
      dxy     :     0.001300


SPIN
  0 C s       :     0.000489  s :     0.000489
      pz      :    -0.000050  p :     0.000402
      px      :     0.000189
      py      :     0.000263
      dz2     :    -0.000038  d :    -0.000017
      dxz     :     0.000038
      dyz     :     0.000082
      dx2y2   :    -0.000032
      dxy     :    -0.000067
      f0      :    -0.000002  f :    -0.000003
      f+1     :    -0.000000
      f-1     :     0.000006
      f+2     :    -0.000001
      f-2     :     0.000001
      f+3     :    -0.000007
      f-3     :     0.000001

  1 C s       :     0.000464  s :     0.000464
      pz      :    -0.000036  p :     0.000419
      px      :     0.000190
      py      :     0.000265
      dz2     :    -0.000038  d :    -0.000021
      dxz     :     0.000037
      dyz     :     0.000079
      dx2y2   :    -0.000033
      dxy     :    -0.000067
      f0      :    -0.000002  f :    -0.000004
      f+1     :    -0.000000
      f-1     :     0.000006
      f+2     :    -0.000001
      f-2     :     0.000001
      f+3     :    -0.000007
      f-3     :     0.000001

  2 H s       :     0.000236  s :     0.000236
      pz      :    -0.000016  p :    -0.000009
      px      :     0.000006
      py      :     0.000001
      dz2     :    -0.000000  d :    -0.000001
      dxz     :     0.000000
      dyz     :    -0.000000
      dx2y2   :    -0.000000
      dxy     :    -0.000000

  3 C s       :    -0.005161  s :    -0.005161
      pz      :    -0.006776  p :    -0.018285
      px      :    -0.003406
      py      :    -0.008103
      dz2     :    -0.000367  d :     0.004431
      dxz     :     0.000130
      dyz     :     0.002576
      dx2y2   :     0.000942
      dxy     :     0.001150
      f0      :     0.000020  f :     0.000271
      f+1     :     0.000039
      f-1     :     0.000021
      f+2     :     0.000040
      f-2     :     0.000047
      f+3     :     0.000007
      f-3     :     0.000098

  4 H s       :     0.000229  s :     0.000229
      pz      :    -0.000016  p :    -0.000009
      px      :     0.000006
      py      :     0.000001
      dz2     :    -0.000000  d :    -0.000001
      dxz     :     0.000000
      dyz     :    -0.000000
      dx2y2   :    -0.000000
      dxy     :    -0.000000

  5 C s       :     0.033799  s :     0.033799
      pz      :     0.103940  p :     0.266527
      px      :     0.147086
      py      :     0.015500
      dz2     :    -0.000417  d :    -0.001530
      dxz     :    -0.000916
      dyz     :     0.000392
      dx2y2   :    -0.000431
      dxy     :    -0.000159
      f0      :     0.000005  f :    -0.000186
      f+1     :    -0.000106
      f-1     :    -0.000020
      f+2     :     0.000088
      f-2     :    -0.000103
      f+3     :    -0.000075
      f-3     :     0.000026

  6 H s       :     0.008118  s :     0.008118
      pz      :     0.000060  p :     0.000221
      px      :     0.000005
      py      :     0.000155
      dz2     :    -0.000000  d :    -0.000000
      dxz     :    -0.000002
      dyz     :     0.000002
      dx2y2   :    -0.000003
      dxy     :     0.000003

  7 H s       :     0.011845  s :     0.011845
      pz      :     0.000157  p :     0.000162
      px      :     0.000079
      py      :    -0.000073
      dz2     :     0.000013  d :     0.000012
      dxz     :     0.000000
      dyz     :    -0.000000
      dx2y2   :    -0.000002
      dxy     :     0.000000

  8 C s       :    -0.005272  s :    -0.005272
      pz      :    -0.006769  p :    -0.018219
      px      :    -0.003377
      py      :    -0.008073
      dz2     :    -0.000367  d :     0.004439
      dxz     :     0.000136
      dyz     :     0.002574
      dx2y2   :     0.000953
      dxy     :     0.001143
      f0      :     0.000021  f :     0.000271
      f+1     :     0.000039
      f-1     :     0.000021
      f+2     :     0.000039
      f-2     :     0.000048
      f+3     :     0.000007
      f-3     :     0.000097

  9 H s       :    -0.119413  s :    -0.119413
      pz      :     0.003864  p :     0.014170
      px      :     0.010438
      py      :    -0.000132
      dz2     :     0.000009  d :     0.000472
      dxz     :     0.000273
      dyz     :     0.000010
      dx2y2   :     0.000157
      dxy     :     0.000023

 10 H s       :    -0.010886  s :    -0.010886
      pz      :     0.001138  p :     0.002871
      px      :     0.001707
      py      :     0.000026
      dz2     :     0.000085  d :     0.000218
      dxz     :     0.000092
      dyz     :     0.000013
      dx2y2   :     0.000026
      dxy     :     0.000002

 11 H s       :     0.008126  s :     0.008126
      pz      :     0.000060  p :     0.000220
      px      :     0.000004
      py      :     0.000156
      dz2     :    -0.000000  d :    -0.000000
      dxz     :    -0.000002
      dyz     :     0.000002
      dx2y2   :    -0.000003
      dxy     :     0.000003

 12 H s       :     0.011912  s :     0.011912
      pz      :     0.000157  p :     0.000164
      px      :     0.000079
      py      :    -0.000073
      dz2     :     0.000014  d :     0.000012
      dxz     :     0.000000
      dyz     :     0.000000
      dx2y2   :    -0.000002
      dxy     :     0.000000

 13 O s       :     0.016165  s :     0.016165
      pz      :     0.294854  p :     0.816731
      px      :     0.518665
      py      :     0.003212
      dz2     :     0.000532  d :    -0.000197
      dxz     :    -0.001079
      dyz     :     0.000098
      dx2y2   :     0.000254
      dxy     :    -0.000002
      f0      :     0.000021  f :    -0.000079
      f+1     :    -0.000211
      f-1     :     0.000014
      f+2     :     0.000013
      f-2     :    -0.000026
      f+3     :     0.000064
      f-3     :     0.000046

 14 H s       :    -0.030059  s :    -0.030059
      pz      :     0.002129  p :     0.004989
      px      :     0.004906
      py      :    -0.002046
      dz2     :     0.000806  d :     0.000967
      dxz     :     0.000045
      dyz     :    -0.000072
      dx2y2   :     0.000237
      dxy     :    -0.000048



                     *******************************
                     * LOEWDIN POPULATION ANALYSIS *
                     *******************************

-------------------------------------------
LOEWDIN ATOMIC CHARGES AND SPIN POPULATIONS
-------------------------------------------
   0 C :   -0.010798   -0.000542
   1 C :   -0.010750   -0.000527
   2 H :    0.002580   -0.000062
   3 C :   -0.018673    0.008641
   4 H :    0.002588   -0.000063
   5 C :    0.037163    0.157972
   6 H :    0.016015    0.003242
   7 H :    0.015670    0.006292
   8 C :   -0.018642    0.008741
   9 H :   -0.062565    0.060244
  10 H :    0.000033    0.008901
  11 H :    0.016023    0.003249
  12 H :    0.015686    0.006329
  13 O :    0.168775    0.704065
  14 H :   -0.153106    0.033518

----------------------------------------------------
LOEWDIN REDUCED ORBITAL CHARGES AND SPIN POPULATIONS
----------------------------------------------------
CHARGE
  0 C s       :     2.734790  s :     2.734790
      pz      :     0.895037  p :     2.839787
      px      :     0.904169
      py      :     1.040581
      dz2     :     0.045384  d :     0.393125
      dxz     :     0.046312
      dyz     :     0.107014
      dx2y2   :     0.078208
      dxy     :     0.116208
      f0      :     0.005794  f :     0.043096
      f+1     :     0.004032
      f-1     :     0.004230
      f+2     :     0.008580
      f-2     :     0.003727
      f+3     :     0.010709
      f-3     :     0.006024

  1 C s       :     2.734794  s :     2.734794
      pz      :     0.895053  p :     2.839737
      px      :     0.904084
      py      :     1.040600
      dz2     :     0.045329  d :     0.393123
      dxz     :     0.046306
      dyz     :     0.107092
      dx2y2   :     0.078257
      dxy     :     0.116139
      f0      :     0.005790  f :     0.043096
      f+1     :     0.004038
      f-1     :     0.004227
      f+2     :     0.008580
      f-2     :     0.003730
      f+3     :     0.010704
      f-3     :     0.006028

  2 H s       :     0.818985  s :     0.818985
      pz      :     0.051156  p :     0.151015
      px      :     0.054137
      py      :     0.045722
      dz2     :     0.004785  d :     0.027420
      dxz     :     0.005615
      dyz     :     0.005269
      dx2y2   :     0.005978
      dxy     :     0.005773

  3 C s       :     2.688892  s :     2.688892
      pz      :     0.974878  p :     2.878374
      px      :     0.955571
      py      :     0.947925
      dz2     :     0.065115  d :     0.408470
      dxz     :     0.087072
      dyz     :     0.086877
      dx2y2   :     0.060441
      dxy     :     0.108965
      f0      :     0.004918  f :     0.042936
      f+1     :     0.005668
      f-1     :     0.006021
      f+2     :     0.005190
      f-2     :     0.006783
      f+3     :     0.007153
      f-3     :     0.007203

  4 H s       :     0.818983  s :     0.818983
      pz      :     0.051185  p :     0.151009
      px      :     0.054073
      py      :     0.045751
      dz2     :     0.004792  d :     0.027419
      dxz     :     0.005609
      dyz     :     0.005282
      dx2y2   :     0.005970
      dxy     :     0.005767

  5 C s       :     2.704205  s :     2.704205
      pz      :     0.972958  p :     2.823239
      px      :     0.914447
      py      :     0.935834
      dz2     :     0.069165  d :     0.393674
      dxz     :     0.088927
      dyz     :     0.058159
      dx2y2   :     0.090005
      dxy     :     0.087417
      f0      :     0.004337  f :     0.041719
      f+1     :     0.003485
      f-1     :     0.004440
      f+2     :     0.007113
      f-2     :     0.007385
      f+3     :     0.006311
      f-3     :     0.008646

  6 H s       :     0.807864  s :     0.807864
      pz      :     0.044655  p :     0.147470
      px      :     0.048621
      py      :     0.054194
      dz2     :     0.004230  d :     0.028650
      dxz     :     0.004539
      dyz     :     0.005625
      dx2y2   :     0.007374
      dxy     :     0.006883

  7 H s       :     0.807331  s :     0.807331
      pz      :     0.059178  p :     0.148649
      px      :     0.045903
      py      :     0.043568
      dz2     :     0.007978  d :     0.028350
      dxz     :     0.007113
      dyz     :     0.006814
      dx2y2   :     0.002878
      dxy     :     0.003567

  8 C s       :     2.688913  s :     2.688913
      pz      :     0.974899  p :     2.878327
      px      :     0.955455
      py      :     0.947973
      dz2     :     0.065240  d :     0.408470
      dxz     :     0.087127
      dyz     :     0.086674
      dx2y2   :     0.060510
      dxy     :     0.108920
      f0      :     0.004917  f :     0.042931
      f+1     :     0.005672
      f-1     :     0.006018
      f+2     :     0.005197
      f-2     :     0.006778
      f+3     :     0.007162
      f-3     :     0.007187

  9 H s       :     0.724432  s :     0.724432
      pz      :     0.104967  p :     0.300113
      px      :     0.146366
      py      :     0.048780
      dz2     :     0.006847  d :     0.038020
      dxz     :     0.012537
      dyz     :     0.003251
      dx2y2   :     0.007595
      dxy     :     0.007791

 10 H s       :     0.818502  s :     0.818502
      pz      :     0.068739  p :     0.152836
      px      :     0.044825
      py      :     0.039272
      dz2     :     0.009669  d :     0.028629
      dxz     :     0.009047
      dyz     :     0.007517
      dx2y2   :     0.000863
      dxy     :     0.001532

 11 H s       :     0.807870  s :     0.807870
      pz      :     0.044634  p :     0.147459
      px      :     0.048551
      py      :     0.054274
      dz2     :     0.004225  d :     0.028648
      dxz     :     0.004520
      dyz     :     0.005639
      dx2y2   :     0.007375
      dxy     :     0.006889

 12 H s       :     0.807310  s :     0.807310
      pz      :     0.059203  p :     0.148653
      px      :     0.045926
      py      :     0.043525
      dz2     :     0.007983  d :     0.028350
      dxz     :     0.007120
      dyz     :     0.006815
      dx2y2   :     0.002868
      dxy     :     0.003565

 13 O s       :     3.474342  s :     3.474342
      pz      :     1.365659  p :     4.326215
      px      :     1.143765
      py      :     1.816791
      dz2     :     0.003509  d :     0.028872
      dxz     :     0.018551
      dyz     :     0.000220
      dx2y2   :     0.006438
      dxy     :     0.000155
      f0      :     0.000196  f :     0.001796
      f+1     :     0.000573
      f-1     :     0.000066
      f+2     :     0.000591
      f-2     :     0.000220
      f+3     :     0.000119
      f-3     :     0.000032

 14 H s       :     0.707496  s :     0.707496
      pz      :     0.142516  p :     0.351514
      px      :     0.094875
      py      :     0.114124
      dz2     :     0.022211  d :     0.094095
      dxz     :     0.024881
      dyz     :     0.023706
      dx2y2   :     0.008465
      dxy     :     0.014832


SPIN
  0 C s       :     0.000045  s :     0.000045
      pz      :    -0.000064  p :    -0.000112
      px      :    -0.000063
      py      :     0.000014
      dz2     :    -0.000258  d :    -0.000425
      dxz     :     0.000007
      dyz     :     0.000181
      dx2y2   :    -0.000274
      dxy     :    -0.000081
      f0      :    -0.000018  f :    -0.000050
      f+1     :    -0.000016
      f-1     :     0.000020
      f+2     :    -0.000005
      f-2     :    -0.000000
      f+3     :    -0.000030
      f-3     :    -0.000000

  1 C s       :     0.000046  s :     0.000046
      pz      :    -0.000053  p :    -0.000086
      px      :    -0.000050
      py      :     0.000016
      dz2     :    -0.000257  d :    -0.000435
      dxz     :     0.000004
      dyz     :     0.000176
      dx2y2   :    -0.000274
      dxy     :    -0.000083
      f0      :    -0.000018  f :    -0.000051
      f+1     :    -0.000016
      f-1     :     0.000019
      f+2     :    -0.000006
      f-2     :    -0.000000
      f+3     :    -0.000031
      f-3     :    -0.000000

  2 H s       :     0.000006  s :     0.000006
      pz      :    -0.000047  p :    -0.000065
      px      :    -0.000018
      py      :     0.000000
      dz2     :    -0.000002  d :    -0.000003
      dxz     :     0.000001
      dyz     :    -0.000002
      dx2y2   :     0.000001
      dxy     :    -0.000002

  3 C s       :    -0.001069  s :    -0.001069
      pz      :    -0.002383  p :    -0.006950
      px      :    -0.001623
      py      :    -0.002944
      dz2     :     0.000389  d :     0.015033
      dxz     :     0.000720
      dyz     :     0.006692
      dx2y2   :     0.002616
      dxy     :     0.004616
      f0      :     0.000118  f :     0.001627
      f+1     :     0.000280
      f-1     :     0.000213
      f+2     :     0.000209
      f-2     :     0.000146
      f+3     :     0.000078
      f-3     :     0.000583

  4 H s       :     0.000003  s :     0.000003
      pz      :    -0.000046  p :    -0.000063
      px      :    -0.000017
      py      :     0.000000
      dz2     :    -0.000002  d :    -0.000003
      dxz     :     0.000001
      dyz     :    -0.000002
      dx2y2   :     0.000001
      dxy     :    -0.000002

  5 C s       :     0.010916  s :     0.010916
      pz      :     0.058252  p :     0.162121
      px      :     0.097086
      py      :     0.006783
      dz2     :    -0.001344  d :    -0.014052
      dxz     :    -0.007250
      dyz     :    -0.000185
      dx2y2   :    -0.004090
      dxy     :    -0.001183
      f0      :    -0.000001  f :    -0.001012
      f+1     :    -0.000225
      f-1     :    -0.000062
      f+2     :    -0.000376
      f-2     :    -0.000163
      f+3     :    -0.000179
      f-3     :    -0.000006

  6 H s       :     0.004110  s :     0.004110
      pz      :    -0.000072  p :    -0.000709
      px      :    -0.000131
      py      :    -0.000506
      dz2     :    -0.000018  d :    -0.000159
      dxz     :    -0.000012
      dyz     :    -0.000030
      dx2y2   :    -0.000090
      dxy     :    -0.000009

  7 H s       :     0.006222  s :     0.006222
      pz      :    -0.000112  p :     0.000152
      px      :     0.000227
      py      :     0.000037
      dz2     :     0.000007  d :    -0.000082
      dxz     :    -0.000025
      dyz     :    -0.000036
      dx2y2   :    -0.000012
      dxy     :    -0.000016

  8 C s       :    -0.001059  s :    -0.001059
      pz      :    -0.002383  p :    -0.006885
      px      :    -0.001580
      py      :    -0.002922
      dz2     :     0.000384  d :     0.015057
      dxz     :     0.000736
      dyz     :     0.006692
      dx2y2   :     0.002655
      dxy     :     0.004591
      f0      :     0.000119  f :     0.001627
      f+1     :     0.000281
      f-1     :     0.000211
      f+2     :     0.000207
      f-2     :     0.000148
      f+3     :     0.000080
      f-3     :     0.000581

  9 H s       :    -0.034960  s :    -0.034960
      pz      :     0.027387  p :     0.089378
      px      :     0.062277
      py      :    -0.000286
      dz2     :     0.000396  d :     0.005826
      dxz     :     0.003028
      dyz     :     0.000088
      dx2y2   :     0.002149
      dxy     :     0.000163

 10 H s       :    -0.005284  s :    -0.005284
      pz      :     0.004197  p :     0.011458
      px      :     0.006982
      py      :     0.000279
      dz2     :     0.001071  d :     0.002727
      dxz     :     0.001264
      dyz     :     0.000115
      dx2y2   :     0.000262
      dxy     :     0.000015

 11 H s       :     0.004116  s :     0.004116
      pz      :    -0.000073  p :    -0.000710
      px      :    -0.000133
      py      :    -0.000505
      dz2     :    -0.000018  d :    -0.000157
      dxz     :    -0.000012
      dyz     :    -0.000029
      dx2y2   :    -0.000089
      dxy     :    -0.000009

 12 H s       :     0.006248  s :     0.006248
      pz      :    -0.000112  p :     0.000162
      px      :     0.000235
      py      :     0.000039
      dz2     :     0.000008  d :    -0.000081
      dxz     :    -0.000025
      dyz     :    -0.000036
      dx2y2   :    -0.000012
      dxy     :    -0.000015

 13 O s       :     0.010249  s :     0.010249
      pz      :     0.252388  p :     0.695380
      px      :     0.438849
      py      :     0.004142
      dz2     :    -0.000062  d :    -0.001538
      dxz     :    -0.000785
      dyz     :    -0.000011
[...]
     38       0.064315   0.528475   0.558774   0.135005   0.152592  -0.059000
     39      -0.001337   0.000074  -0.000003   0.000027  -0.000148   0.000362
     40      -0.000018  -0.000002  -0.000038   0.000084   0.000006  -0.000002
     41       0.001112  -0.000121  -0.000010   0.000005   0.000124  -0.000407
     42       0.004464  -0.000422  -0.000023  -0.000139   0.000409  -0.002857
     43       0.000263   0.000070   0.000061  -0.000149   0.000060  -0.000024
     44      -0.003499   0.000903   0.000135  -0.000255  -0.000116   0.001602
                 42         43         44    
      0      -0.036487  -0.037083   0.000000
      1      -0.033458  -0.042990  -0.000022
      2      -0.032859  -0.033442   0.000003
      3       0.036529  -0.037053   0.000009
      4      -0.033487   0.042947  -0.000004
      5       0.032897  -0.033419   0.000012
      6       0.429291   0.427092  -0.000147
      7       0.402988   0.406628   0.000078
      8       0.385949   0.384247  -0.000085
      9      -0.001490   0.001796  -0.000026
     10      -0.001711   0.002638   0.000026
     11      -0.000450   0.001216   0.000119
     12      -0.429721   0.426701  -0.000370
     13       0.403259  -0.406169   0.000186
     14      -0.386375   0.383916  -0.000291
     15       0.000006   0.001314   0.000471
     16       0.000386   0.000004   0.000006
     17       0.000006   0.001235  -0.000633
     18       0.011861  -0.014258  -0.000072
     19       0.013001  -0.017431  -0.000249
     20      -0.005809   0.006481   0.000143
     21      -0.000692   0.003239  -0.000770
     22       0.001120  -0.004414   0.000518
     23       0.004228  -0.009559  -0.000149
     24       0.001461   0.001781  -0.000048
     25      -0.001676  -0.002619  -0.000007
     26       0.000478   0.001220   0.000121
     27       0.000032  -0.002355  -0.005562
     28      -0.000076   0.000026   0.000073
     29       0.000030   0.001044   0.008935
     30      -0.000022  -0.004604  -0.000521
     31      -0.000449   0.000020   0.000024
     32      -0.000080  -0.010010   0.000221
     33      -0.011691  -0.014223   0.000084
     34       0.012588   0.017208  -0.000066
     35       0.005587   0.006341  -0.000051
     36       0.000856   0.003270  -0.000723
     37       0.001162   0.004378  -0.000500
     38      -0.004412  -0.009594  -0.000105
     39      -0.000013   0.000016   0.038851
     40      -0.000002  -0.000004   0.000347
     41      -0.000017   0.000033   0.049336
     42       0.000065  -0.000013  -0.613397
     43      -0.000098   0.000039  -0.005571
     44       0.000293  -0.000441  -0.787182


-----------
IR SPECTRUM
-----------

 Mode   freq       eps      Int      T**2         TX        TY        TZ
       cm**-1   L/(mol*cm) km/mol    a.u.
----------------------------------------------------------------------------
  7:     67.12   0.000605    3.06  0.002812  (-0.041034  0.032720  0.007564)
  8:     91.01   0.007661   38.72  0.026268  (-0.002696 -0.162047  0.001192)
  9:    109.39   0.009547   48.24  0.027235  ( 0.001258  0.165022 -0.000758)
 10:    218.33   0.004322   21.84  0.006178  ( 0.071916  0.000301 -0.031713)
 11:    390.23   0.000000    0.00  0.000000  ( 0.000015  0.000019  0.000097)
 12:    569.30   0.001305    6.60  0.000716  (-0.022653  0.000531  0.014218)
 13:    692.96   0.003868   19.55  0.001742  ( 0.015033  0.000093 -0.038937)
 14:    765.26   0.000135    0.68  0.000055  (-0.005991 -0.000187  0.004391)
 15:    785.73   0.000107    0.54  0.000043  (-0.000298 -0.006518  0.000170)
 16:    882.57   0.006903   34.88  0.002441  (-0.045161  0.000369  0.020028)
 17:    895.09   0.000197    1.00  0.000069  (-0.000056 -0.008296  0.000015)
 18:    927.66   0.001081    5.46  0.000364  ( 0.017623  0.003249 -0.006520)
 19:    930.09   0.001992   10.06  0.000668  ( 0.001010 -0.025830 -0.000217)
 20:    974.03   0.000000    0.00  0.000000  ( 0.000269  0.000055 -0.000273)
 21:    984.65   0.000171    0.87  0.000054  (-0.000430  0.000014  0.007355)
 22:   1052.65   0.000166    0.84  0.000049  (-0.001394  0.006845  0.000615)
 23:   1079.26   0.006479   32.74  0.001873  ( 0.042315 -0.000017 -0.009098)
 24:   1132.70   0.003867   19.54  0.001065  ( 0.029567  0.000255 -0.013822)
 25:   1140.16   0.000734    3.71  0.000201  ( 0.005273  0.012912 -0.002534)
 26:   1194.05   0.326718  1651.10  0.085388  (-0.264277 -0.000382  0.124680)
 27:   1201.31   0.008390   42.40  0.002179  ( 0.041967 -0.005012 -0.019826)
 28:   1246.82   0.003356   16.96  0.000840  ( 0.024320 -0.000053 -0.015766)
 29:   1257.19   0.000024    0.12  0.000006  (-0.002170 -0.000449  0.001067)
 30:   1312.61   0.000413    2.09  0.000098  ( 0.000220  0.009903 -0.000106)
 31:   1346.92   0.013452   67.98  0.003117  (-0.052914  0.000104  0.017801)
 32:   1388.11   0.000589    2.98  0.000132  ( 0.000295 -0.011500 -0.000128)
 33:   1464.00   0.050114  253.26  0.010682  (-0.096577 -0.000050  0.036812)
 34:   1487.17   0.000880    4.44  0.000185  (-0.000742  0.013562  0.000271)
 35:   1500.07   0.010368   52.40  0.002157  ( 0.045037  0.000038 -0.011340)
 36:   1673.27   0.000310    1.57  0.000058  (-0.004512  0.000010 -0.006118)
 37:   3024.91   0.004841   24.46  0.000499  ( 0.007392 -0.000760 -0.021076)
 38:   3025.61   0.007594   38.38  0.000783  ( 0.000241  0.027980 -0.000567)
 39:   3086.69   0.003146   15.90  0.000318  (-0.001362 -0.017764  0.000783)
 40:   3088.18   0.002631   13.30  0.000266  ( 0.013997 -0.001692 -0.008190)
 41:   3119.39   0.006086   30.75  0.000609  ( 0.008594  0.000009  0.023129)
 42:   3198.65   0.000997    5.04  0.000097  ( 0.000000 -0.009864  0.000020)
 43:   3223.31   0.003688   18.64  0.000357  (-0.015437  0.000001 -0.010898)
 44:   3775.79   0.005536   27.98  0.000458  (-0.020800 -0.000035 -0.004992)

* The epsilon (eps) is given for a Dirac delta lineshape.
** The dipole moment derivative (T) already includes vibrational overlap.

The first frequency considered to be a vibration is 7
The total number of vibrations considered is 38


--------------------------
THERMOCHEMISTRY AT 298.15K
--------------------------

Temperature         ...   298.15 K
Pressure            ...     1.00 atm
Total Mass          ...    85.13 AMU
Quasi RRHO          ...     True
Cut-Off Frequency   ...     1.00 cm^-1

Throughout the following assumptions are being made:
  (1) The electronic state is orbitally nondegenerate
      but the spin degeneracy is treated
  (2) There are no thermally accessible electronically excited states
  (3) Hindered rotations indicated by low frequency modes are not
      treated as such but are treated as vibrations and this may
      cause some error
  (4) All equations used are the standard statistical mechanics
      equations for an ideal gas
  (5) All vibrations are strictly harmonic

freq.      67.12  E(vib)   ...       0.50 
freq.      91.01  E(vib)   ...       0.47 
freq.     109.39  E(vib)   ...       0.45 
freq.     218.33  E(vib)   ...       0.33 
freq.     390.23  E(vib)   ...       0.20 
freq.     569.30  E(vib)   ...       0.11 
freq.     692.96  E(vib)   ...       0.07 
freq.     765.26  E(vib)   ...       0.06 
freq.     785.73  E(vib)   ...       0.05 
freq.     882.57  E(vib)   ...       0.04 
freq.     895.09  E(vib)   ...       0.03 
freq.     927.66  E(vib)   ...       0.03 
freq.     930.09  E(vib)   ...       0.03 
freq.     974.03  E(vib)   ...       0.03 
freq.     984.65  E(vib)   ...       0.02 
freq.    1052.65  E(vib)   ...       0.02 
freq.    1079.26  E(vib)   ...       0.02 
freq.    1132.70  E(vib)   ...       0.01 
freq.    1140.16  E(vib)   ...       0.01 
freq.    1194.05  E(vib)   ...       0.01 
freq.    1201.31  E(vib)   ...       0.01 
freq.    1246.82  E(vib)   ...       0.01 
freq.    1257.19  E(vib)   ...       0.01 
freq.    1312.61  E(vib)   ...       0.01 
freq.    1346.92  E(vib)   ...       0.01 
freq.    1388.11  E(vib)   ...       0.00 
freq.    1464.00  E(vib)   ...       0.00 
freq.    1487.17  E(vib)   ...       0.00 
freq.    1500.07  E(vib)   ...       0.00 
freq.    1673.27  E(vib)   ...       0.00 
freq.    3024.91  E(vib)   ...       0.00 
freq.    3025.61  E(vib)   ...       0.00 
freq.    3086.69  E(vib)   ...       0.00 
freq.    3088.18  E(vib)   ...       0.00 
freq.    3119.39  E(vib)   ...       0.00 
freq.    3198.65  E(vib)   ...       0.00 
freq.    3223.31  E(vib)   ...       0.00 
freq.    3775.79  E(vib)   ...       0.00 

------------
INNER ENERGY
------------

The inner energy is: U= E(el) + E(ZPE) + E(vib) + E(rot) + E(trans)
    E(el)   - is the total energy from the electronic structure calculation
              = E(kin-el) + E(nuc-el) + E(el-el) + E(nuc-nuc)
    E(ZPE)  - the the zero temperature vibrational energy from the frequency calculation
    E(vib)  - the the finite temperature correction to E(ZPE) due to population
              of excited vibrational states
    E(rot)  - is the rotational thermal energy
    E(trans)- is the translational thermal energy

Summary of contributions to the inner energy U:
Electronic energy                ...   -270.65418707 Eh
Zero point energy                ...      0.12370956 Eh      77.63 kcal/mol
Thermal vibrational correction   ...      0.00408135 Eh       2.56 kcal/mol
Thermal rotational correction    ...      0.00141627 Eh       0.89 kcal/mol
Thermal translational correction ...      0.00141627 Eh       0.89 kcal/mol
-----------------------------------------------------------------------
Total thermal energy                   -270.52356362 Eh


Summary of corrections to the electronic energy:
(perhaps to be used in another calculation)
Total thermal correction                  0.00691389 Eh       4.34 kcal/mol
Non-thermal (ZPE) correction              0.12370956 Eh      77.63 kcal/mol
-----------------------------------------------------------------------
Total correction                          0.13062346 Eh      81.97 kcal/mol


--------
ENTHALPY
--------

The enthalpy is H = U + kB*T
                kB is Boltzmann's constant
Total thermal energy              ...   -270.52356362 Eh 
Thermal Enthalpy correction       ...      0.00094421 Eh       0.59 kcal/mol
-----------------------------------------------------------------------
Total Enthalpy                    ...   -270.52261941 Eh


Note: Only C1 symmetry has been detected, increase convergence thresholds 
      if your molecule has a higher symmetry. Symmetry factor of 1.0 is   
      used for the rotational entropy correction. 
 

Note: Rotational entropy computed according to Herzberg 
Infrared and Raman Spectra, Chapter V,1, Van Nostrand Reinhold, 1945 
Point Group:  C1, Symmetry Number:   1  
Rotational constants in cm-1:     0.169201     0.077466     0.068290 

Vibrational entropy computed according to the QRRHO of S. Grimme
Chem.Eur.J. 2012 18 9955 using a reference frequency of 100.0 cm-1


-------
ENTROPY
-------

The entropy contributions are T*S = T*(S(el)+S(vib)+S(rot)+S(trans))
     S(el)   - electronic entropy
     S(vib)  - vibrational entropy
     S(rot)  - rotational entropy
     S(trans)- translational entropy
The entropies will be listed as multiplied by the temperature to get
units of energy

Electronic entropy                ...      0.00065446 Eh      0.41 kcal/mol
Vibrational entropy               ...      0.00723497 Eh      4.54 kcal/mol
Rotational entropy                ...      0.01282421 Eh      8.05 kcal/mol
Translational entropy             ...      0.01864317 Eh     11.70 kcal/mol
-----------------------------------------------------------------------
Final entropy term                ...      0.03935681 Eh     24.70 kcal/mol

In case the symmetry of your molecule has not been determined correctly
or in case you have a reason to use a different symmetry number we print 
out the resulting rotational entropy values for sn=1,12:

 non-linear molecules -----------------------------------
|  sn= 1 | S(rot)=       0.01282421 Eh      8.05 kcal/mol|
|  sn= 2 | S(rot)=       0.01216976 Eh      7.64 kcal/mol|
|  sn= 3 | S(rot)=       0.01178692 Eh      7.40 kcal/mol|
|  sn= 4 | S(rot)=       0.01151530 Eh      7.23 kcal/mol|
|  sn= 5 | S(rot)=       0.01130461 Eh      7.09 kcal/mol|
|  sn= 6 | S(rot)=       0.01113247 Eh      6.99 kcal/mol|
|  sn= 7 | S(rot)=       0.01098692 Eh      6.89 kcal/mol|
|  sn= 8 | S(rot)=       0.01086084 Eh      6.82 kcal/mol|
|  sn= 9 | S(rot)=       0.01074964 Eh      6.75 kcal/mol|
|  sn=10 | S(rot)=       0.01065016 Eh      6.68 kcal/mol|
|  sn=11 | S(rot)=       0.01056017 Eh      6.63 kcal/mol|
|  sn=12 | S(rot)=       0.01047801 Eh      6.58 kcal/mol|
 linear molecules ---------------------------------------
|  Dinfh | S(rot)=       0.00785999 Eh      4.93 kcal/mol|
|  Cinfv | S(rot)=       0.00851444 Eh      5.34 kcal/mol|
 --------------------------------------------------------


-------------------
GIBBS FREE ENERGY
-------------------

The Gibbs free energy is G = H - T*S

Total enthalpy                    ...   -270.52261941 Eh 
Total entropy correction          ...     -0.03935681 Eh    -24.70 kcal/mol
-----------------------------------------------------------------------
Final Gibbs free energy         ...   -270.56197622 Eh

For completeness - the Gibbs free energy minus the electronic energy
G-E(el)                           ...      0.09221085 Eh     57.86 kcal/mol



--------------------------------
SUGGESTED CITATIONS FOR THIS RUN
--------------------------------

Below you find a list of papers that are relevant to this ORCA run
We neither can nor want to force you to cite these papers, but we appreciate if you do
You receive ORCA, which is the product of decades of hard work by many enthusiastic individuals, for free
The only thing we kindly ask in return is that you cite our papers,
We deeply appreciate it, if you show your appreciation for ORCA by not just citing the generic ORCA reference.

Please note that relegating all ORCA citations to the supporting information does *not* help us.
SI sections are not indexed - citations you put there will not count into any citation statistics
But we need these citations in order to attract the funding resources that allow us to do what we are doing

Therefore, if you are a happy ORCA user, please consider citing a few of the papers listed below in the main body of your paper

In addition to the list printed below, the program has created the file opt.bibtex that contains the list in bibtex format
You can import this file easily into all common literature databanks and citation aid programs

It goes without saying that in many instances, there are alternative algorithms to achieve similar
results as the ones you have gotten from ORCA. It is, of course, also the case that in some instances
ORCA just re-implements algorithms worked out by others. We are fully aware of that and we are also
fully appreciative of our colleagues work. Hence this citation list should not be read as indicating
that the listed papers, which are focused on our own work, are the only ones worth citing. It simply
meant to make it easier for users to cite ORCA specific papers. It is not a substitute for doing your
own literature research and citing the relevant literature in a scientifically appropriate manner.

List of essential papers. We consider these as the minimum necessary citations

  1. Neese, F.
     Software update: the ORCA program system, version 6.0
     WIRES Comput. Molec. Sci. 2025 15(1), e70019
     doi.org/10.1002/wcms.70019

List of papers to cite with high priority. The work reported in these papers was absolutely
necessary for this run to complete.
Our perspective: the developers of density functionals and basis sets usually get cited in chemistry papers
Good! But without the algorithms to do something with them, the functionals or basis sets would not do anything.
Hence, in our opinion, the algorithm design and method developments papers are equally worthy of getting cited

  1. Neese, F.
     An improvement of the resolution of the identity approximation for the formation of the Coulomb matrix
     J. Comp. Chem. 2003 24(14), 1740-1747
     doi.org/10.1002/jcc.10318
  2. Neese, F.; Schwabe, T.; Grimme, S.
     Analytic derivatives for perturbatively corrected 'double hybrid' density functionals: Theory, implementation, and applications
     J. Chem. Phys. 2007 126(12), Art. No. 124115
     doi.org/10.1063/1.2712433
  3. Neese, F.; Wennmohs, F.; Hansen, A.; Becker, U.
     Efficient, approximate and parallel Hartree-Fock and hybrid DFT calculations. A 'chain-of-spheres' algorithm for the Hartree-Fock exchange
     Chem. Phys. 2009 356(1-3), 98-109
     doi.org/10.1016/j.chemphys.2008.10.036
  4. Kossmann, S.; Neese, F.
     Efficient Structure Optimization with Second-Order Many-Body Perturbation Theory: The RIJCOSX-MP2 Method
     J. Theo. Comp. Chem. 2010 6 , 2325-2338
     doi.org/10.1021/ct100199k
  5. Caldeweyher, E.; Bannwarth, C.; Grimme, S.
     Extension of the D3 dispersion coefficient model
     J. Chem. Phys. 2017 147 , 034112
     doi.org/10.1063/1.4993215
  6. Caldeweyher, E.; Ehlert, S.; Hansen, A.; Neugebauer, H.; Spicher, S.; Bannwarth, C.; Grimme, S.
     A generally applicable atomic-charge dependent London dispersion correction
     J. Chem. Phys. 2019 150 , 154122
     doi.org/10.1063/1.5090222
  7. Helmich-Paris, B.; de Souza, B.; Neese, F.; Izsák, R.
     An improved chain of spheres for exchange algorithm
     J. Chem. Phys. 2021 155(10), 104109
     doi.org/10.1063/5.0058766
  8. Neese, F.
     The SHARK Integral Generation and Digestion System
     J. Comp. Chem. 2022 44(3), 381
     doi.org/10.1002/jcc.26942

List of suggested additional citations. These are papers that are important in the 'surrounding' of 
of this run, or papers that preceded the highly important papers. If you like your results we are grateful for a citation.

  1. Izsak, R.; Neese, F.
     An overlap fitted chain of spheres exchange method
     J. Chem. Phys. 2011 135 , 144105
     doi.org/10.1063/1.3646921
  2. Izsak, R.; Hansen, A.; Neese, F.
     The resolution of identity and chain of spheres approximations for the LPNO-CCSD singles Fock term
     Molec. Phys. 2012 110 , 2413-2417
     doi.org/10.1080/00268976.2012.687466
  3. Neese, F.
     The ORCA program system
     WIRES Comput. Molec. Sci. 2012 2(1), 73-78
     doi.org/10.1002/wcms.81
  4. Izsak, R.; Neese, F.; Klopper, W.
     Robust fitting techniques in the chain of spheres approximation to the Fock exchange: The role of the complementary space
     J. Chem. Phys. 2013 139 , 
     doi.org/10.1063/1.4819264
  5. Neese, F.
     Software update: the ORCA program system, version 4.0
     WIRES Comput. Molec. Sci. 2018 8(1), 1-6
     doi.org/10.1002/wcms.1327
  6. Neese, F.; Wennmohs, F.; Becker, U.; Riplinger, C.
     The ORCA quantum chemistry program package
     J. Chem. Phys. 2020 152(22), 224108
     doi.org/10.1063/5.0004608
  7. Neese, F.
     Software update: The ORCA program system—Version 5.0
     WIRES Comput. Molec. Sci. 2022 12(1), e1606
     doi.org/10.1002/wcms.1606

List of optional additional citations

  1. Neese, F.
     Approximate second-order SCF convergence for spin unrestricted wavefunctions
     Chem. Phys. Lett. 2000 325(1-3), 93-98
     doi.org/10.1016/s0009-2614(00)00662-x

Timings for individual modules:

Sum of individual times          ...    14515.822 sec (= 241.930 min)
Startup calculation              ...       82.189 sec (=   1.370 min)   0.6 %
SCF iterations                   ...      924.274 sec (=  15.405 min)   6.4 %
Property calculations            ...        2.743 sec (=   0.046 min)   0.0 %
MP2 module                       ...     1117.784 sec (=  18.630 min)   7.7 %
Geometry relaxation              ...        0.790 sec (=   0.013 min)   0.0 %
Numerical frequency calculation  ...    12388.042 sec (= 206.467 min)  85.3 %
                             ****ORCA TERMINATED NORMALLY****
TOTAL RUN TIME: 0 days 3 hours 59 minutes 22 seconds 588 msec
