
                                 *****************
                                 * O   R   C   A *
                                 *****************

                                            #,                                       
                                            ###                                      
                                            ####                                     
                                            #####                                    
                                            ######                                   
                                           ########,                                 
                                     ,,################,,,,,                         
                               ,,#################################,,                 
                          ,,##########################################,,             
                       ,#########################################, ''#####,          
                    ,#############################################,,   '####,        
                  ,##################################################,,,,####,       
                ,###########''''           ''''###############################       
              ,#####''   ,,,,##########,,,,          '''####'''          '####       
            ,##' ,,,,###########################,,,                        '##       
           ' ,,###''''                  '''############,,,                           
         ,,##''                                '''############,,,,        ,,,,,,###''
      ,#''                                            '''#######################'''  
     '                                                          ''''####''''         
             ,#######,   #######,   ,#######,      ##                                
            ,#'     '#,  ##    ##  ,#'     '#,    #''#        ,####,    ,#,          
            ##       ##  ##   ,#'  ##            #'  '#       #'       ,# #          
            ##       ##  #######   ##           ,######,      #####,      #          
            '#,     ,#'  ##    ##  '#,     ,#' ,#      #,     #,   #      #          
             '#######'   ##     ##  '#######'  #'      '#     '####' #    #          



                #########################################################
                #                        -***-                          #
                #          Department of theory and spectroscopy        #
                #                                                       #
                #                      Frank Neese                      #
                #                                                       #
                #     Directorship, Architecture, Infrastructure        #
                #                    SHARK, DRIVERS                     #
                #        Core code/Algorithms in most modules           #
                #                                                       #
                #        Max Planck Institute fuer Kohlenforschung      #
                #                Kaiser Wilhelm Platz 1                 #
                #                 D-45470 Muelheim/Ruhr                 #
                #                      Germany                          #
                #                                                       #
                #                  All rights reserved                  #
                #                        -***-                          #
                #########################################################


                         Program Version 6.1.1  -  RELEASE   -
                                (GIT: $487d211c$)
                          ($2025-11-21 10:33:24 +0100$)


 With contributions from (in alphabetic order):
[Max-Planck-Institut fuer Kohlenforschung]                               
  Daniel Aravena         : Magnetic Suceptibility                        
  Michael Atanasov       : Ab Initio Ligand Field Theory (pilot matlab implementation)
  Alexander A. Auer      : GIAO ZORA, VPT2 properties, NMR spectrum      
  Ute Becker             : All parallelization in ORCA, NUMFREQ, NUMCALC 
  Giovanni Bistoni       : ED, misc. LED, open-shell LED, HFLD           
  Dmytro Bykov           : pre 5.0 version of the SCF Hessian            
  Marcos Casanova-Páez   : Triplet and SCS-CIS(D). UHF-(DLPNO)-IP/EA/STEOM-CCSD. UHF-CVS-IP/STEOM-CCSD   
  Vijay G. Chilkuri      : MRCI spin determinant printing, contributions to CSF-ICE 
  Pauline Colinet        : FMM embedding                                 
  Dipayan Datta          : RHF DLPNO-CCSD density                        
  Achintya Kumar Dutta   : EOM-CC, STEOM-CC                              
  Nicolas Foglia         : Exact transition moments, OPA infrastructure, MCD improvements    
  Dmitry Ganyushin       : Spin-Orbit,Spin-Spin,Magnetic field MRCI      
  Miquel Garcia-Rates    : C-PCM and meta-GGA Hessian, CCSD/C-PCM, Gaussian charge scheme 
  Tiago L. C. Gouveia    : GS-ROHF, GS-ROCIS                             
  Yang Guo               : DLPNO-NEVPT2, F12-NEVPT2, CIM, IAO-localization        
  Andreas Hansen         : Spin unrestricted coupled pair/coupled cluster methods 
  Ingolf Harden          : AUTO-CI MPn and infrastructure                
  Benjamin Helmich-Paris : MC-RPA, TRAH-(SCF,CASSCF), AVAS, COSX integrals, SCF dyn. polar., MC-PDFT, srDFT 
  Lee Huntington         : MR-EOM, pCC                                   
  Robert Izsak           : Overlap fitted RIJCOSX, COSX-SCS-MP3, EOM     
  Riya Kayal             : Wick's Theorem for AUTO-CI, AUTO-CI UHF-CCSDT 
  Emily Kempfer          : AUTO-CI RHF CISDT and CCSDT, approximate NEVPT4
  Christian Kollmar      : KDIIS, OOCD, Brueckner-CCSD(T), CCSD density, CASPT2, CASPT2-K, improved NEVPT2 
  Axel Koslowski         : Symmetry handling                             
  Simone Kossmann        : meta-GGA functionals, TD-DFT gradient, OOMP2, (MP2 Hessian; deprecated post 5.0) 
  Lucas Lang             : DCDCAS, Hyperfine gauge corrections, ICE-SOC+SSC
  Marvin Lechner         : AUTO-CI (C++ implementation), FIC-MRCC        
  Spencer Leger          : CASSCF response                               
  Dagmar Lenk            : GEPOL surface, SMD, ORCA-2-JSON               
  Dimitrios Liakos       : Extrapolation schemes; Compound Job, Property file
  Dimitrios Manganas     : Further ROCIS development; embedding schemes. LFT, Crystal Embedding 
  Dimitrios Pantazis     : SARC Basis sets                               
  Anastasios Papadopoulos: AUTO-CI, single reference methods and gradients 
  Taras Petrenko         : pre 6.0 DFT Hessian and TD-DFT gradient,  ECA, NRVS 
  Petra Pikulova         : Analytic Raman intensities                    
  Peter Pinski           : DLPNO-MP2, DLPNO-MP2 Gradient                 
  Shashank Vittal Rao    : ES-AILFT, MagRelax                            
  Christoph Reimann      : Effective Core Potentials                     
  Marius Retegan         : Local ZFS, SOC                                
  Christoph Riplinger    : Optimizer, TS searches, QM/MM, DLPNO-CCSD(T), (RO)-DLPNO pert. Triples 
  Michael Roemelt        : Original ROCIS implementation, recursive CI coupling coefficients
  Masaaki Saitow         : Open-shell DLPNO-CCSD energy and density      
  Barbara Sandhoefer     : DKH picture change effects                    
  Yorick L. A. Schmerwitz: GMF and freeze-and-release deltaSCF, NEB S-IDPP initial path                    
  Kantharuban Sivalingam : CASSCF convergence/infrastructure, NEVPT2, NEVPT3, NEVPT4(SD), FIC-MRCI and CEPA variants
  Bernardo de Souza      : ESD, SOC TD-DFT                               
  Georgi L. Stoychev     : AutoAux, RI-MP2 NMR, DLPNO-MP2 response, X2C  
  Van Anh Tran           : RI-MP2 g-tensors                              
  Willem Van den Heuvel  : Paramagnetic NMR                              
  Zikuan Wang            : NOTCH, Electric field optimization            
  Frank Wennmohs         : Technical directorship and infrastructure     
  Hang Xu                : AUTO-CI-Response properties                   
                                                                         
[FACCTs GmbH]                                                            
  Markus Bursch, Nicolas Foglia, Miquel Garcia-Rates, Ingolf Harden, Hagen Neugebauer, Anastasios Papadopoulos, 
  Christoph Riplinger, Bernardo de Souza, Georgi L. Stoychev                                                    
                                                                 
  APM, various basis sets, CI-OPT, improved COSX, DLPNO-Multilevel,           
  DOCKER, DRACO, updates on ESD, Fragmentator, GOAT, IRC, LR-CPCM, L-BFGS, MBIS, meta-GGA TD-DFT gradient, ML-optimized integration grids, 
  MM, NACMEs, nearIR, NEB, NEB-TS, NL-DFT gradient (VV10), 2- and 3-layer-ONIOM, interface openCOSMO-RS, QMMM,   
  Crystal-QMMM, RESP, rigid body optimization, SF, symmetry and pop. for TD-DFT, various functionals, SOLVATOR                                   
                                                                         
[Other institutions]                                                     
  V. Asgeirsson          : NEB                                           
  Christoph Bannwarth    : sTDA-DFT, sTD-DFT, PBEh-3c, B97-3c, D3        
  Giovanni Bistoni       : ETS/NOCV, ADLD/ADEX, COVALED                  
  Martin Brehm           : Molecular dynamics                            
  Ronald Cardenas        : ETS/NOCV                                      
  Martina Colucci        : COVALED                                       
  Sebastian Ehlert       : rSCAN, r2SCAN, r2SCAN-3c, D4, dhf basis sets  
  Marvin Friede          : D4 for Fr, Ra, Ac-Lr                          
  Lars Goerigk           : TD-DFT with DH, B97 family of functionals     
  Stefan Grimme          : VdW corrections, initial TS optimization, DFT functionals, gCP, sTDA/sTD-DF 
  Waldemar Hujo          : DFT-NL                                        
  H. Jonsson             : NEB                                           
  Holger Kruse           : gCP                                           
  Marcel Mueller         : wB97X-3c, vDZP basis set                      
  Hagen Neugebauer       : wr2SCAN, Native XTB                           
  Gianluca Regni         : ADLD/ADEX                                     
  Tobias Risthaus        : pre 6.0 range-separated hybrid DFT and stability analysis
  Lukas Wittmann         : regularized MP2, r2SCAN double-hybrids, wr2SCAN        
                                                                         
We gratefully acknowledge several colleagues who have allowed us to      
interface, adapt or use parts of their codes:                            
  Ed Valeev, F. Pavosevic, A. Kumar             : LibInt (2-el integral package), F12 methods 
  Garnet Chan, S. Sharma, J. Yang, R. Olivares  : DMRG                   
  Ulf Ekstrom                                   : XCFun DFT Library      
  Mihaly Kallay                                 : mrcc  (arbitrary order and MRCC methods)
  Frank Weinhold                                : gennbo (NPA and NBO analysis)           
  Simon Mueller                                 : openCOSMO-RS                            
  Christopher J. Cramer and Donald G. Truhlar   : smd solvation model                     
  S Lehtola, MJT Oliveira, MAL Marques          : LibXC Library                           
  Liviu Ungur et al                             : ANISO software                          


 Your calculation uses the libint2 library for the computation of 2-el integrals
 For citations please refer to: http://libint.valeyev.net

 Your ORCA version has been built with support for libXC version: 7.0.0
 For citations please refer to: https://libxc.gitlab.io

 This ORCA versions uses:
   CBLAS   interface :  Fast vector & matrix operations
   LAPACKE interface :  Fast linear algebra routines
   SCALAPACK package :  Parallel linear algebra routines
   Shared memory     :  Shared parallel matrices
   BLAS/LAPACK       :  OpenBLAS 0.3.29  USE64BITINT DYNAMIC_ARCH NO_AFFINITY Zen SINGLE_THREADED
        Core in use  :  Zen
   Copyright (c) 2011-2014, The OpenBLAS Project


  ***********************************
  * Starting time: Tue Mar 10 16:07:37 2026
  * Host name:     b1-8
  * Process ID:    1362467
  * Working dir.:  /tmp/lscratch/avcopan/43470617
  ***********************************

NOTE: MaxCore=9000 MB was set to SCF,MP2,MDCI,CIPSI,MRCI,RASCI and CIS
      => If you want to overwrite this, your respective input block should be placed after the MaxCore statement


***************************************
The coordinates will be read from file: opt.xyz
***************************************


================================================================================

----- Orbital basis set information -----
Your calculation utilizes the basis: cc-pVDZ-F12 

----- AuxC basis set information -----
Your calculation utilizes the auxiliary basis: cc-pVTZ/C 
  Obtained from the EMSL Basis Set Exchange (bse.pnl.gov) Feb. 2017
  H-He, B-F, Al-Ar, Ga-Kr : F. Weigend, A. Kohn, C. Hattig, J. Chem. Phys. 116, 3175 (2002)
             Li-Be, Na-Mg : C. Haettig, Phys. Chem. Chem. Phys. 7, 59 (2005)
                       Ne : C. Haettig, Phys. Chem. Chem. Phys. 7, 59 (2005)
                            F. Weigend, A. Kohn, C. Hattig, J. Chem. Phys. 116, 3175 (2002)
                    Sc-Zn : J. G. Hill, J. A. Platts, J. Chem. Phys. 128, 044104 (2008)

----- CABS information -----
Your calculation utilizes the basis: cc-pVDZ-F12 


                    <<< The CABS basis set will be decontracted >>>

================================================================================
                                        WARNINGS
                       Please study these warnings very carefully!
================================================================================


WARNING: Post HF methods need fully converged wavefunctions
  ===> : Setting SCFConvForced true
         You can overwrite this default with %scf ConvForced false 


WARNING: MDCI localization with Augmented Hessian Foster-Boys
  ===> : Switching off randomization!

WARNING: UseCISUpdate is  only available for RHF calculations...
  ===> : Setting UseCISUpdate = false 

================================================================================
                                       INPUT FILE
================================================================================
NAME = sp.inp
|  1> # 
|  2> % MaxCore 9000
|  3> ! PAL8
|  4> ! uhf ccsd(t)-f12/ri cc-pvdz-f12 cc-pvdz-f12-cabs cc-pvtz/c
|  5> * xyzfile 0 2 opt.xyz
|  6> 
|  7> 
|  8>                          ****END OF INPUT****
================================================================================

                       ****************************
                       * Single Point Calculation *
                       ****************************

---------------------------------
CARTESIAN COORDINATES (ANGSTROEM)
---------------------------------
  C     -1.439102   -0.667617   -0.549819
  C     -1.439211    0.667263   -0.549922
  H     -2.099460   -1.288191   -1.142368
  C     -0.426501    1.233447    0.414192
  H     -2.099678    1.287622   -1.142580
  C      0.406148    0.000076    0.790664
  H      0.185636    2.024735   -0.024754
  H     -0.922867    1.663712    1.292721
  C     -0.426321   -1.233456    0.414414
  H      1.330585   -0.000111    0.082704
  H      0.797623    0.000125    1.807719
  H      0.186049   -2.024681   -0.024303
  H     -0.922627   -1.663611    1.293016
  O      2.539653   -0.002243   -0.669370
  H      3.134301    0.003151    0.095348

----------------------------
CARTESIAN COORDINATES (A.U.)
----------------------------
  NO LB      ZA    FRAG     MASS         X           Y           Z
   0 C     6.0000    0    12.011   -2.719509   -1.261613   -1.039008
   1 C     6.0000    0    12.011   -2.719714    1.260945   -1.039202
   2 H     1.0000    0     1.008   -3.967405   -2.434327   -2.158763
   3 C     6.0000    0    12.011   -0.805969    2.330878    0.782709
   4 H     1.0000    0     1.008   -3.967816    2.433253   -2.159164
   5 C     6.0000    0    12.011    0.767508    0.000144    1.494139
   6 H     1.0000    0     1.008    0.350801    3.826195   -0.046778
   7 H     1.0000    0     1.008   -1.743965    3.143959    2.442889
   8 C     6.0000    0    12.011   -0.805630   -2.330894    0.783130
   9 H     1.0000    0     1.008    2.514441   -0.000210    0.156288
  10 H     1.0000    0     1.008    1.507289    0.000235    3.416094
  11 H     1.0000    0     1.008    0.351581   -3.826092   -0.045925
  12 H     1.0000    0     1.008   -1.743512   -3.143770    2.443447
  13 O     8.0000    0    15.999    4.799249   -0.004239   -1.264925
  14 H     1.0000    0     1.008    5.922970    0.005954    0.180181

--------------------------------
INTERNAL COORDINATES (ANGSTROEM)
--------------------------------
 C      0   0   0     0.000000000000     0.00000000     0.00000000
 C      1   0   0     1.334880217049     0.00000000     0.00000000
 H      1   2   0     1.082727609082   124.96430797     0.00000000
 C      2   1   3     1.508529653217   112.03779543   178.31045069
 H      2   1   3     1.082730869643   124.96313507     0.00000000
 C      4   2   1     1.535004847771   102.66962835    11.61234391
 H      4   2   1     1.092483409942   113.03005183   132.60740600
 H      4   2   1     1.096959755510   110.81136446   252.61459087
 C      1   2   3     1.508524751200   112.03655926   181.69107274
 H      6   4   2     1.164384630556   106.35975414    95.05938609
 H      6   4   2     1.089794976200   115.06886986   212.57890449
 H      9   1   2     1.092476853131   113.03554078   227.39542775
 H      9   1   2     1.096947780801   110.81130881   107.38266490
 O     10   6   4     1.423891181406   174.43629930   123.92836859
 H     14  10   6     0.968724638676    95.98547542   358.88470366

---------------------------
INTERNAL COORDINATES (A.U.)
---------------------------
 C      0   0   0     0.000000000000     0.00000000     0.00000000
 C      1   0   0     2.522558031812     0.00000000     0.00000000
 H      1   2   0     2.046058658800   124.96430797     0.00000000
 C      2   1   3     2.850707909479   112.03779543   178.31045069
 H      2   1   3     2.046064820368   124.96313507     0.00000000
 C      4   2   1     2.900738776529   102.66962835    11.61234391
 H      4   2   1     2.064494450643   113.03005183   132.60740600
 H      4   2   1     2.072953517848   110.81136446   252.61459087
 C      1   2   3     2.850698646009   112.03655926   181.69107274
 H      6   4   2     2.200368066298   106.35975414    95.05938609
 H      6   4   2     2.059414047142   115.06886986   212.57890449
 H      9   1   2     2.064482060065   113.03554078   227.39542775
 H      9   1   2     2.072930888926   110.81130881   107.38266490
 O     10   6   4     2.690764377363   174.43629930   123.92836859
 H     14  10   6     1.830624266279    95.98547542   358.88470366

---------------------
BASIS SET INFORMATION
---------------------
There are 3 groups of distinct atoms

 Group   1 Type C   : 19s6p2d contracted to 5s5p2d pattern {88111/21111/11}
 Group   2 Type H   : 5s2p contracted to 3s2p pattern {311/11}
 Group   3 Type O   : 19s6p2d contracted to 5s5p2d pattern {88111/21111/11}

Atom   0C    basis set group =>   1
Atom   1C    basis set group =>   1
Atom   2H    basis set group =>   2
Atom   3C    basis set group =>   1
Atom   4H    basis set group =>   2
Atom   5C    basis set group =>   1
Atom   6H    basis set group =>   2
Atom   7H    basis set group =>   2
Atom   8C    basis set group =>   1
Atom   9H    basis set group =>   2
Atom  10H    basis set group =>   2
Atom  11H    basis set group =>   2
Atom  12H    basis set group =>   2
Atom  13O    basis set group =>   3
Atom  14H    basis set group =>   2
---------------------------------
AUXILIARY/C BASIS SET INFORMATION
---------------------------------
There are 3 groups of distinct atoms

 Group   1 Type C   : 8s6p5d3f1g contracted to 8s6p5d3f1g pattern {11111111/111111/11111/111/1}
 Group   2 Type H   : 4s3p2d1f contracted to 4s3p2d1f pattern {1111/111/11/1}
 Group   3 Type O   : 8s6p5d3f1g contracted to 8s6p5d3f1g pattern {11111111/111111/11111/111/1}

Atom   0C    basis set group =>   1
Atom   1C    basis set group =>   1
Atom   2H    basis set group =>   2
Atom   3C    basis set group =>   1
Atom   4H    basis set group =>   2
Atom   5C    basis set group =>   1
Atom   6H    basis set group =>   2
Atom   7H    basis set group =>   2
Atom   8C    basis set group =>   1
Atom   9H    basis set group =>   2
Atom  10H    basis set group =>   2
Atom  11H    basis set group =>   2
Atom  12H    basis set group =>   2
Atom  13O    basis set group =>   3
Atom  14H    basis set group =>   2
--------------
CABS BASIS SET
--------------
There are 3 groups of distinct atoms

 Group   1 Type C   : 15s10p6d3f1g contracted to 15s10p6d3f1g pattern {111111111111111/1111111111/111111/111/1}
 Group   2 Type H   : 8s5p2d contracted to 8s5p2d pattern {11111111/11111/11}
 Group   3 Type O   : 15s10p6d3f1g contracted to 15s10p6d3f1g pattern {111111111111111/1111111111/111111/111/1}

Atom   0C    basis set group =>   1
Atom   1C    basis set group =>   1
Atom   2H    basis set group =>   2
Atom   3C    basis set group =>   1
Atom   4H    basis set group =>   2
Atom   5C    basis set group =>   1
Atom   6H    basis set group =>   2
Atom   7H    basis set group =>   2
Atom   8C    basis set group =>   1
Atom   9H    basis set group =>   2
Atom  10H    basis set group =>   2
Atom  11H    basis set group =>   2
Atom  12H    basis set group =>   2
Atom  13O    basis set group =>   3
Atom  14H    basis set group =>   2


           ************************************************************
           *        Program running with 8 parallel MPI-processes     *
           *              working on a common directory               *
           ************************************************************
------------------------------------------------------------------------------
                             ORCA STARTUP CALCULATIONS
------------------------------------------------------------------------------
------------------------------------------------------------------------------
                   ___                                                        
                  /   \      - P O W E R E D   B Y -                         
                 /     \                                                     
                 |  |  |   _    _      __       _____    __    __             
                 |  |  |  | |  | |    /  \     |  _  \  |  |  /  |          
                  \  \/   | |  | |   /    \    | | | |  |  | /  /          
                 / \  \   | |__| |  /  /\  \   | |_| |  |  |/  /          
                |  |  |   |  __  | /  /__\  \  |    /   |      \           
                |  |  |   | |  | | |   __   |  |    \   |  |\   \          
                \     /   | |  | | |  |  |  |  | |\  \  |  | \   \       
                 \___/    |_|  |_| |__|  |__|  |_| \__\ |__|  \__/        
                                                                              
                      - O R C A' S   B I G   F R I E N D -                    
                                      &                                       
                       - I N T E G R A L  F E E D E R -                       
                                                                              
 v1 FN, 2020, v2 2021, v3 2022-2024                                           
------------------------------------------------------------------------------


----------------------
SHARK INTEGRAL PACKAGE
----------------------

Number of atoms                             ...     15
Number of basis functions                   ...    297
Number of shells                            ...    153
Maximum angular momentum                    ...      2
Integral batch strategy                     ... SHARK/LIBINT Hybrid
RI-J (if used) integral strategy            ... SPLIT-RIJ (Revised 2003 algorithm where possible)
Printlevel                                  ...      1
Contraction scheme used                     ... PARTIAL GENERAL contraction
Prescreening option                         ... SCHWARTZ
   Thresh                                   ... 1.000e-10
   Tcut                                     ... 1.000e-11
   Tpresel                                  ... 1.000e-11 
Coulomb Range Separation                    ... NOT USED
Exchange Range Separation                   ... NOT USED
Multipole approximations                    ... NOT USED
Finite Nucleus Model                        ... NOT USED
CABS basis                                  ... AVAILABLE
   # of basis functions in CABS             ...    927
   # of shells in CABS                      ...    345
   Maximum angular momentum in CABS         ...      4
F12 Gamma exponent                          ...  0.900000
F12-Geminal                                 ...  6 primitives
l =0 ng=6 ofs=0
   a( 0) =     0.220850853  d( 0)=    -0.314424804 
   a( 1) =     1.004019154  d( 1)=    -0.303695753 
   a( 2) =     3.621217265  d( 2)=    -0.168069685 
   a( 3) =    12.162483048  d( 3)=    -0.098115813 
   a( 4) =    45.855331575  d( 4)=    -0.060246641 
   a( 5) =   254.234600970  d( 5)=    -0.037263542 
Auxiliary Coulomb fitting basis             ... NOT available
Auxiliary J/K fitting basis                 ... NOT available
Auxiliary Correlation fitting basis         ... AVAILABLE
   # of basis functions in Aux-C            ...    756
   # of shells in Aux-C                     ...    228
   Maximum angular momentum in Aux-C        ...      4
Auxiliary 'external' fitting basis          ... NOT available

Checking pre-screening integrals            ... done (  0.0 sec) Dimension = 153
Save PGC pre-screening integrals            ... done (  0.0 sec) Dimension = 153
Calculate PGC overlap integrals             ... done (  0.0 sec) Dimension = 117
Calculating pre-screening integrals (ORCA)  ... done (  0.0 sec) Dimension = 117
Shell pair information
Shell pair cut-off parameter TPreSel        ...   1.0e-11
Total number of shell pairs                 ...     11781
Shell pairs after pre-screening             ...      9967
Total number of primitive shell pairs       ...     15786
Primitive shell pairs kept                  ...     12244
          la=0 lb=0:   3317 shell pairs
          la=1 lb=0:   3877 shell pairs
          la=1 lb=1:   1103 shell pairs
          la=2 lb=0:   1036 shell pairs
          la=2 lb=1:    558 shell pairs
          la=2 lb=2:     76 shell pairs

Checking whether 4 symmetric matrices of dimension 297 fit in memory
:Max Core in MB      =   9000.00
 MB in use           =     64.49
 MB left             =   8935.51
 MB needed           =      1.35
 Data fit in memory  = YES
Calculating RI/C V-Matrix + Cholesky decomp.... done (  0.0 sec)
Calculating Nuclear repulsion               ... done (  0.0 sec) ENN=    229.367499948613 Eh

Diagonalization of the overlap matrix:
Smallest eigenvalue                        ... 6.241e-05
Time for diagonalization                   ...    0.008 sec
Threshold for overlap eigenvalues          ... 1.000e-07
Number of eigenvalues below threshold      ... 0
Time for construction of square roots      ...    0.003 sec
Total time needed                          ...    0.011 sec

-------------------
DFT GRID GENERATION
-------------------

General Integration Accuracy     IntAcc      ... 4.388
Radial Grid Type                 RadialGrid  ... OptM3 with GC (2021)
Angular Grid (max. ang.)         AngularGrid ... 4 (Lebedev-302)
Angular grid pruning method      GridPruning ... 4 (adaptive)
Weight generation scheme         WeightScheme... mBecke (2022)
Basis function cutoff            BFCut       ... 1.0000e-10
Integration weight cutoff        WCut        ... 1.0000e-14
Partially contracted basis set               ... off
Rotationally invariant grid construction     ... off
Angular grids for H and He will be reduced by one unit
Diffuse basis detected: some atoms will have their outermost
                        angular grid increased by 1.

Total number of grid points                  ...    66730
Total number of batches                      ...     1051
Average number of points per batch           ...       63
Average number of grid points per atom       ...     4449

---------------------
SHARK GRID GENERATION
---------------------

General Integration Accuracy     IntAcc      ... 4.388
Radial Grid Type                 RadialGrid  ... OptM3 with GC (2021)
Angular Grid (max. ang.)         AngularGrid ... 4 (Lebedev-302)
Angular grid pruning method      GridPruning ... 4 (adaptive)
Weight generation scheme         WeightScheme... mBecke (2022)
Basis function cutoff            BFCut       ... 1.0000e-10
Integration weight cutoff        WCut        ... 1.0000e-14
Partially contracted basis set               ... off
Rotationally invariant grid construction     ... off
Angular grids for H and He will be reduced by one unit
Diffuse basis detected: some atoms will have their outermost
                        angular grid increased by 1.
Steep s-basis detected: some atoms will have their radial
                        grid points doubled.

Total number of grid points                  ...   104738
Total number of batches                      ...     1646
Average number of points per batch           ...       63
Average number of grid points per atom       ...     6983
Grids setup in   0.9 sec
Initializing property integral containers    ... done (  0.0 sec)

SHARK setup successfully completed in   1.5 seconds

Maximum memory used throughout the entire STARTUP-calculation: 85.5 MB


           ************************************************************
           *        Program running with 8 parallel MPI-processes     *
           *              working on a common directory               *
           ************************************************************
-------------------------------------------------------------------------------
                                 ORCA GUESS
                   Start orbitals & Density for SCF / CASSCF
-------------------------------------------------------------------------------

------------
SCF SETTINGS
------------
Hamiltonian:
 Ab initio Hamiltonian  Method          .... Hartree-Fock(GTOs)


General Settings:
 Integral files         IntName         .... sp
 Hartree-Fock type      HFTyp           .... UHF
 Total Charge           Charge          ....    0
 Multiplicity           Mult            ....    2
 Number of Electrons    NEL             ....   47
 Basis Dimension        Dim             ....  261
 Nuclear Repulsion      ENuc            ....    229.3674999486 Eh

Convergence Acceleration:
 AO-DIIS                CNVDIIS         .... on
   Start iteration      DIISMaxIt       ....    12
   Startup error        DIISStart       ....  0.200000
   # of expansion vecs  DIISMaxEq       ....     5
   Bias factor          DIISBfac        ....   1.050
   Max. coefficient     DIISMaxC        ....  10.000
 MO-DIIS                CNVKDIIS        .... off
 Trust-Rad. Augm. Hess. CNVTRAH         .... auto
   Auto Start mean grad. ratio tolernc. ....  1.125000
   Auto Start start iteration           ....    50
   Auto Start num. interpolation iter.  ....    10
   Max. Number of Micro iterations      ....    24
   Max. Number of Macro iterations      .... Maxiter - #DIIS iter
   Number of Davidson start vectors     ....     2
   Converg. threshold    (grad. norm)   ....   5.000e-05
   Grad. Scal. Fac. for Micro threshold ....   0.100
   Minimum threshold for Micro iter.    ....   1.000e-02
   NR start threshold (gradient norm)   ....   1.000e-04
   Initial trust radius                 ....   0.400
   Minimum AH scaling param. (alpha)    ....   1.000
   Maximum AH scaling param. (alpha)    .... 1000.000
   Quad. conv. algorithm                .... NR
   White noise on init. David. guess    .... on
   Maximum white noise                  ....   0.010
   Pseudo random numbers                .... off
   Inactive MOs                         .... canonical
   Orbital update algorithm             .... Taylor
   Preconditioner                       .... Diag
   Full preconditioner red. dimension   ....   250
 SOSCF                 CNVSOSCF           .... on
   Start iteration     SOSCFMaxIt         ....   150
   Startup grad/error  SOSCFStart         ....  0.003300
   Hessian update      SOSCFHessUp        .... L-BFGS
   Autom. constraints  SOSCFAutoConstrain .... off
 Level Shifting         CNVShift        .... on
   Level shift para.    LevelShift      ....    0.2500
   Turn off err/grad.   ShiftErr        ....    0.0010
 Zerner damping         CNVZerner       .... off
 Static damping         CNVDamp         .... on
   Fraction old density DampFac         ....    0.7000
   Max. Damping (<1)    DampMax         ....    0.9800
   Min. Damping (>=0)   DampMin         ....    0.0000
   Turn off err/grad.   DampErr         ....    0.1000

SCF Procedure:
 Maximum # iterations   MaxIter         ....   125
 SCF integral mode      SCFMode         .... Direct
   Integral package                     .... SHARK and LIBINT hybrid scheme
 Reset frequency        DirectResetFreq ....    20
 Integral Threshold     Thresh          ....  1.000e-10 Eh
 Primitive CutOff       TCut            ....  1.000e-11 Eh

Convergence Tolerance:
 Convergence Check Mode ConvCheckMode   .... Total+1el-Energy
 Convergence forced     ConvForced      .... 1
 Energy Change          TolE            ....  1.000e-06 Eh
 1-El. energy change                    ....  1.000e-03 Eh
 Orbital Gradient       TolG            ....  5.000e-05
 Orbital Rotation angle TolX            ....  5.000e-05
 DIIS Error             TolErr          ....  1.000e-06

------------------------------
INITIAL GUESS: MODEL POTENTIAL
------------------------------
Loading Hartree-Fock densities                     ... done
Calculating cut-offs                               ... done
Initializing the effective Hamiltonian             ... done
Setting up the integral package (SHARK)            ... done
Starting the Coulomb interaction                   ... done (   0.0 sec)
Making the grid                                    ... done (   0.1 sec)
Mapping shells                                     ... done
Starting the XC term evaluation                    ... done (   0.0 sec)
Transforming the Hamiltonian                       ... done (   0.0 sec)
Diagonalizing the Hamiltonian                      ... done (   0.0 sec)
Back transforming the eigenvectors                 ... done (   0.0 sec)
Now organizing SCF variables                       ... done
                      ------------------
                      INITIAL GUESS DONE (   0.2 sec)
                      ------------------
             **** ENERGY FILE WAS UPDATED (sp.en.tmp) ****
Finished Guess after   1.7 sec
Maximum memory used throughout the entire GUESS-calculation: 17.9 MB


           ************************************************************
           *        Program running with 8 parallel MPI-processes     *
           *              working on a common directory               *
           ************************************************************

-------------------------------------------------------------------------------------------
                                      ORCA LEAN-SCF
                              memory conserving SCF solver
-------------------------------------------------------------------------------------------

----------------------------------------D-I-I-S--------------------------------------------
Iteration    Energy (Eh)           Delta-E    RMSDP     MaxDP     DIISErr   Damp  Time(sec)
-------------------------------------------------------------------------------------------
               ***  Starting incremental Fock matrix formation  ***
    1    -269.0177951351513457     0.00e+00  1.74e-03  1.49e-02  1.81e-01  0.700   2.5
    2    -269.1428432052868516    -1.25e-01  1.38e-03  1.29e-02  1.05e-01  0.700   2.4
                               ***Turning on AO-DIIS***
    3    -269.2181029343251453    -7.53e-02  8.67e-04  8.46e-03  6.05e-02  0.700   2.3
    4    -269.2685117294556107    -5.04e-02  2.31e-03  2.52e-02  4.57e-02  0.000   2.3
    5    -269.4025837534133530    -1.34e-01  8.02e-04  1.10e-02  2.34e-02  0.000   2.4
    6    -269.4138655112728316    -1.13e-02  8.43e-04  1.32e-02  1.65e-02  0.000   2.3
    7    -269.4221727463167326    -8.31e-03  5.13e-04  7.25e-03  1.25e-02  0.000   2.3
    8    -269.4254352474465009    -3.26e-03  3.14e-04  3.64e-03  6.62e-03  0.000   2.2
    9    -269.4267337640609981    -1.30e-03  2.44e-04  2.76e-03  4.67e-03  0.000   2.2
                              *** Initializing SOSCF ***
---------------------------------------S-O-S-C-F--------------------------------------
Iteration    Energy (Eh)           Delta-E    RMSDP     MaxDP     MaxGrad    Time(sec)
--------------------------------------------------------------------------------------
   10    -269.4273628720929423    -6.29e-04  1.64e-04  1.85e-03  2.50e-03     2.2
               *** Restarting incremental Fock matrix formation ***
   11    -269.4275876476318103    -2.25e-04  6.56e-05  8.53e-04  1.92e-03     2.5
   12    -269.4276320709070092    -4.44e-05  1.31e-04  1.46e-03  1.02e-03     2.0
   13    -269.4276746813557679    -4.26e-05  2.86e-05  3.69e-04  4.82e-04     2.1
   14    -269.4276806193897187    -5.94e-06  2.09e-05  2.80e-04  2.99e-04     1.9
   15    -269.4276825701096527    -1.95e-06  5.60e-06  6.91e-05  9.88e-05     1.9
   16    -269.4276827724413010    -2.02e-07  4.28e-06  6.00e-05  6.22e-05     1.7
                 **** Energy Check signals convergence ****

               *****************************************************
               *                     SUCCESS                       *
               *           SCF CONVERGED AFTER  16 CYCLES          *
               *****************************************************

             **** ENERGY FILE WAS UPDATED (sp.en.tmp) ****

----------------
TOTAL SCF ENERGY
----------------

Total Energy       :       -269.42768285045810 Eh           -7331.49998 eV

Components:
Nuclear Repulsion  :        229.36749994861276 Eh            6241.40698 eV
Electronic Energy  :       -498.79518279907086 Eh          -13572.90696 eV
One Electron Energy:       -820.10419969604959 Eh          -22316.16981 eV
Two Electron Energy:        321.30901689697873 Eh            8743.26285 eV

Virial components:
Potential Energy   :       -538.60704247888930 Eh          -14656.24273 eV
Kinetic Energy     :        269.17935962843126 Eh            7324.74276 eV
Virial Ratio       :          2.00092251955116

---------------
SCF CONVERGENCE
---------------

  Last Energy change         ...    2.0233e-07  Tolerance :   1.0000e-06
  Last MAX-Density change    ...    5.9983e-05  Tolerance :   1.0000e-05
  Last RMS-Density change    ...    4.2797e-06  Tolerance :   1.0000e-06
  Last DIIS Error            ...    2.5000e-03  Tolerance :   1.0000e-06
  Last Orbital Gradient      ...    6.2246e-05  Tolerance :   5.0000e-05
  Last Orbital Rotation      ...    1.9642e-04  Tolerance :   5.0000e-05


----------------------
UHF SPIN CONTAMINATION
----------------------

Expectation value of <S**2>     :     0.774953
Ideal value S*(S+1) for S=0.5   :     0.750000
Deviation                       :     0.024953

----------------
ORBITAL ENERGIES
----------------
                 SPIN UP ORBITALS
  NO   OCC          E(Eh)            E(eV) 
   0   1.0000     -20.626479      -561.2750 
   1   1.0000     -11.227180      -305.5071 
   2   1.0000     -11.221082      -305.3412 
   3   1.0000     -11.220884      -305.3358 
   4   1.0000     -11.220430      -305.3234 
   5   1.0000     -11.218952      -305.2832 
   6   1.0000      -1.387909       -37.7669 
   7   1.0000      -1.131999       -30.8033 
   8   1.0000      -0.967736       -26.3334 
   9   1.0000      -0.956143       -26.0180 
  10   1.0000      -0.794645       -21.6234 
  11   1.0000      -0.723628       -19.6909 
  12   1.0000      -0.705476       -19.1970 
  13   1.0000      -0.675371       -18.3778 
  14   1.0000      -0.663434       -18.0530 
  15   1.0000      -0.610194       -16.6042 
  16   1.0000      -0.558976       -15.2105 
  17   1.0000      -0.545346       -14.8396 
  18   1.0000      -0.533663       -14.5217 
  19   1.0000      -0.492867       -13.4116 
  20   1.0000      -0.490642       -13.3510 
  21   1.0000      -0.478729       -13.0269 
  22   1.0000      -0.437162       -11.8958 
  23   1.0000      -0.337339        -9.1795 
  24   0.0000       0.057692         1.5699 
  25   0.0000       0.061004         1.6600 
  26   0.0000       0.063071         1.7163 
  27   0.0000       0.072137         1.9629 
  28   0.0000       0.079672         2.1680 
  29   0.0000       0.088343         2.4039 
  30   0.0000       0.109106         2.9689 
  31   0.0000       0.111649         3.0381 
  32   0.0000       0.127845         3.4789 
  33   0.0000       0.129412         3.5215 
  34   0.0000       0.136397         3.7115 

                 SPIN DOWN ORBITALS
  NO   OCC          E(Eh)            E(eV) 
   0   1.0000     -20.588841      -560.2509 
   1   1.0000     -11.221575      -305.3546 
   2   1.0000     -11.221457      -305.3514 
   3   1.0000     -11.220585      -305.3276 
   4   1.0000     -11.218936      -305.2828 
   5   1.0000     -11.218515      -305.2713 
   6   1.0000      -1.248107       -33.9627 
   7   1.0000      -1.126629       -30.6571 
   8   1.0000      -0.956155       -26.0183 
   9   1.0000      -0.955169       -25.9915 
  10   1.0000      -0.774485       -21.0748 
  11   1.0000      -0.723293       -19.6818 
  12   1.0000      -0.671963       -18.2850 
  13   1.0000      -0.651388       -17.7252 
  14   1.0000      -0.613827       -16.7031 
  15   1.0000      -0.550218       -14.9722 
  16   1.0000      -0.532406       -14.4875 
  17   1.0000      -0.506104       -13.7718 
  18   1.0000      -0.490700       -13.3526 
  19   1.0000      -0.490126       -13.3370 
  20   1.0000      -0.475052       -12.9268 
  21   1.0000      -0.466128       -12.6840 
  22   1.0000      -0.338240        -9.2040 
  23   0.0000       0.057209         1.5567 
  24   0.0000       0.061105         1.6628 
  25   0.0000       0.063084         1.7166 
  26   0.0000       0.063144         1.7182 
  27   0.0000       0.074448         2.0258 
  28   0.0000       0.079685         2.1683 
  29   0.0000       0.093224         2.5367 
  30   0.0000       0.109227         2.9722 
  31   0.0000       0.119190         3.2433 
  32   0.0000       0.127971         3.4823 
  33   0.0000       0.135399         3.6844 
*Only the first 10 virtual orbitals were printed.

                    ********************************
                    * MULLIKEN POPULATION ANALYSIS *
                    ********************************

--------------------------------------------
MULLIKEN ATOMIC CHARGES AND SPIN POPULATIONS
--------------------------------------------
   0 C :   -0.214764    0.003316
   1 C :   -0.215002    0.003284
   2 H :    0.136304    0.000031
   3 C :   -0.088198   -0.032676
   4 H :    0.136303    0.000034
   5 C :   -0.292622    0.309401
   6 H :    0.108562    0.008559
   7 H :    0.101243    0.009935
   8 C :   -0.088434   -0.032664
   9 H :    0.140793   -0.133173
  10 H :    0.096567   -0.016329
  11 H :    0.108707    0.008559
  12 H :    0.101233    0.009930
  13 O :   -0.283331    0.912178
  14 H :    0.252640   -0.050385
Sum of atomic charges         :    0.0000000
Sum of atomic spin populations:    1.0000000

-----------------------------------------------------
MULLIKEN REDUCED ORBITAL CHARGES AND SPIN POPULATIONS
-----------------------------------------------------
CHARGE
  0 C s       :     3.167040  s :     3.167040
      pz      :     0.975097  p :     2.966964
      px      :     1.001434
      py      :     0.990432
      dz2     :     0.007488  d :     0.080761
      dxz     :     0.009290
      dyz     :     0.027014
      dx2y2   :     0.010812
      dxy     :     0.026157

  1 C s       :     3.167208  s :     3.167208
      pz      :     0.975217  p :     2.967031
      px      :     1.001438
      py      :     0.990376
      dz2     :     0.007484  d :     0.080762
      dxz     :     0.009291
      dyz     :     0.027016
      dx2y2   :     0.010814
      dxy     :     0.026157

  2 H s       :     0.833923  s :     0.833923
      pz      :     0.012557  p :     0.029774
      px      :     0.013356
      py      :     0.003861

  3 C s       :     2.955006  s :     2.955006
      pz      :     1.013314  p :     3.026482
      px      :     0.968140
      py      :     1.045029
      dz2     :     0.019973  d :     0.106710
      dxz     :     0.024812
      dyz     :     0.018981
      dx2y2   :     0.014215
      dxy     :     0.028729

  4 H s       :     0.833923  s :     0.833923
      pz      :     0.012559  p :     0.029774
      px      :     0.013358
      py      :     0.003857

  5 C s       :     3.085232  s :     3.085232
      pz      :     1.098523  p :     3.099150
      px      :     1.044713
      py      :     0.955914
      dz2     :     0.021485  d :     0.108240
      dxz     :     0.026960
      dyz     :     0.013900
      dx2y2   :     0.022574
      dxy     :     0.023321

  6 H s       :     0.857421  s :     0.857421
      pz      :     0.006679  p :     0.034017
      px      :     0.010353
      py      :     0.016986

  7 H s       :     0.866030  s :     0.866030
      pz      :     0.014573  p :     0.032727
      px      :     0.007270
      py      :     0.010883

  8 C s       :     2.955250  s :     2.955250
      pz      :     1.013274  p :     3.026471
      px      :     0.968193
      py      :     1.045004
      dz2     :     0.019982  d :     0.106713
      dxz     :     0.024814
      dyz     :     0.018966
      dx2y2   :     0.014219
      dxy     :     0.028731

  9 H s       :     0.788408  s :     0.788408
      pz      :     0.021514  p :     0.070799
      px      :     0.031960
      py      :     0.017325

 10 H s       :     0.865674  s :     0.865674
      pz      :     0.019355  p :     0.037759
      px      :     0.011592
      py      :     0.006812

 11 H s       :     0.857277  s :     0.857277
      pz      :     0.006675  p :     0.034016
      px      :     0.010358
      py      :     0.016983

 12 H s       :     0.866037  s :     0.866037
      pz      :     0.014575  p :     0.032730
      px      :     0.007270
      py      :     0.010885

 13 O s       :     3.901752  s :     3.901752
      pz      :     1.267585  p :     4.365462
      px      :     1.143189
      py      :     1.954688
      dz2     :     0.002965  d :     0.016117
      dxz     :     0.009542
      dyz     :     0.001516
      dx2y2   :     0.001843
      dxy     :     0.000251

 14 H s       :     0.682890  s :     0.682890
      pz      :     0.013703  p :     0.064470
      px      :     0.016398
      py      :     0.034369


SPIN
  0 C s       :     0.001205  s :     0.001205
      pz      :     0.000484  p :     0.002420
      px      :     0.001123
      py      :     0.000814
      dz2     :    -0.000064  d :    -0.000309
      dxz     :    -0.000083
      dyz     :     0.000024
      dx2y2   :    -0.000099
      dxy     :    -0.000087

  1 C s       :     0.001205  s :     0.001205
      pz      :     0.000465  p :     0.002388
      px      :     0.001116
      py      :     0.000808
      dz2     :    -0.000064  d :    -0.000309
      dxz     :    -0.000084
      dyz     :     0.000024
      dx2y2   :    -0.000099
      dxy     :    -0.000087

  2 H s       :     0.000049  s :     0.000049
      pz      :    -0.000013  p :    -0.000018
      px      :    -0.000016
      py      :     0.000011

  3 C s       :    -0.012202  s :    -0.012202
      pz      :    -0.006541  p :    -0.022897
      px      :    -0.006068
      py      :    -0.010288
      dz2     :    -0.000118  d :     0.002424
      dxz     :     0.000129
      dyz     :     0.001210
      dx2y2   :     0.000549
      dxy     :     0.000653

  4 H s       :     0.000053  s :     0.000053
      pz      :    -0.000013  p :    -0.000018
      px      :    -0.000016
      py      :     0.000011

  5 C s       :     0.055100  s :     0.055100
      pz      :     0.096550  p :     0.256039
      px      :     0.142817
      py      :     0.016672
      dz2     :    -0.000305  d :    -0.001739
      dxz     :    -0.000883
      dyz     :     0.000250
      dx2y2   :    -0.000455
      dxy     :    -0.000347

  6 H s       :     0.008634  s :     0.008634
      pz      :    -0.000021  p :    -0.000075
      px      :     0.000079
      py      :    -0.000133

  7 H s       :     0.010222  s :     0.010222
      pz      :     0.000164  p :    -0.000287
      px      :    -0.000051
      py      :    -0.000399

  8 C s       :    -0.012200  s :    -0.012200
      pz      :    -0.006527  p :    -0.022886
      px      :    -0.006058
      py      :    -0.010300
      dz2     :    -0.000118  d :     0.002422
      dxz     :     0.000129
      dyz     :     0.001210
      dx2y2   :     0.000548
      dxy     :     0.000654

  9 H s       :    -0.169308  s :    -0.169308
      pz      :     0.011733  p :     0.036135
      px      :     0.023122
      py      :     0.001280

 10 H s       :    -0.018841  s :    -0.018841
      pz      :     0.001134  p :     0.002511
      px      :     0.001280
      py      :     0.000097

 11 H s       :     0.008634  s :     0.008634
      pz      :    -0.000021  p :    -0.000075
      px      :     0.000079
      py      :    -0.000133

 12 H s       :     0.010218  s :     0.010218
      pz      :     0.000164  p :    -0.000288
      px      :    -0.000052
      py      :    -0.000400

 13 O s       :     0.008062  s :     0.008062
      pz      :     0.336284  p :     0.903517
      px      :     0.564748
      py      :     0.002486
      dz2     :     0.000797  d :     0.000599
      dxz     :    -0.000847
      dyz     :     0.000083
      dx2y2   :     0.000551
      dxy     :     0.000015

 14 H s       :    -0.052528  s :    -0.052528
      pz      :     0.001200  p :     0.002142
      px      :     0.004059
      py      :    -0.003117



                     *******************************
                     * LOEWDIN POPULATION ANALYSIS *
                     *******************************

-------------------------------------------
LOEWDIN ATOMIC CHARGES AND SPIN POPULATIONS
-------------------------------------------
   0 C :   -0.023349   -0.000685
   1 C :   -0.023378   -0.000697
   2 H :    0.010841   -0.000101
   3 C :   -0.020485    0.001140
   4 H :    0.010834   -0.000101
   5 C :    0.039995    0.152166
   6 H :    0.019684    0.002630
   7 H :    0.016539    0.005408
   8 C :   -0.020464    0.001127
   9 H :   -0.093584    0.037055
  10 H :    0.007524    0.004376
  11 H :    0.019739    0.002631
  12 H :    0.016539    0.005403
  13 O :    0.100048    0.785704
  14 H :   -0.060484    0.003944

----------------------------------------------------
LOEWDIN REDUCED ORBITAL CHARGES AND SPIN POPULATIONS
----------------------------------------------------
CHARGE
  0 C s       :     2.730753  s :     2.730753
      pz      :     0.904178  p :     2.878689
      px      :     0.919164
      py      :     1.055347
      dz2     :     0.048518  d :     0.413907
      dxz     :     0.051117
      dyz     :     0.111116
      dx2y2   :     0.082863
      dxy     :     0.120293

  1 C s       :     2.730754  s :     2.730754
      pz      :     0.904200  p :     2.878718
      px      :     0.919182
      py      :     1.055336
      dz2     :     0.048505  d :     0.413907
      dxz     :     0.051121
      dyz     :     0.111120
      dx2y2   :     0.082866
      dxy     :     0.120296

  2 H s       :     0.800353  s :     0.800353
      pz      :     0.064295  p :     0.188806
      px      :     0.067465
      py      :     0.057046

  3 C s       :     2.679672  s :     2.679672
      pz      :     0.984663  p :     2.925915
      px      :     0.967669
      py      :     0.973583
      dz2     :     0.066790  d :     0.414897
      dxz     :     0.087238
      dyz     :     0.088949
      dx2y2   :     0.063284
      dxy     :     0.108637

  4 H s       :     0.800357  s :     0.800357
      pz      :     0.064302  p :     0.188809
      px      :     0.067471
      py      :     0.057035

  5 C s       :     2.685422  s :     2.685422
      pz      :     0.987090  p :     2.873152
      px      :     0.940119
      py      :     0.945943
      dz2     :     0.069532  d :     0.401432
      dxz     :     0.090467
      dyz     :     0.061270
      dx2y2   :     0.092431
      dxy     :     0.087731

  6 H s       :     0.793381  s :     0.793381
      pz      :     0.056186  p :     0.186935
      px      :     0.061291
      py      :     0.069458

  7 H s       :     0.793639  s :     0.793639
      pz      :     0.077290  p :     0.189822
      px      :     0.058029
      py      :     0.054503

  8 C s       :     2.679659  s :     2.679659
      pz      :     0.984654  p :     2.925908
      px      :     0.967675
      py      :     0.973579
      dz2     :     0.066810  d :     0.414897
      dxz     :     0.087240
      dyz     :     0.088919
      dx2y2   :     0.063283
      dxy     :     0.108646

  9 H s       :     0.704877  s :     0.704877
      pz      :     0.136613  p :     0.388707
      px      :     0.185974
      py      :     0.066119

 10 H s       :     0.801677  s :     0.801677
      pz      :     0.087455  p :     0.190799
      px      :     0.055538
      py      :     0.047806

 11 H s       :     0.793333  s :     0.793333
      pz      :     0.056175  p :     0.186928
      px      :     0.061299
      py      :     0.069454

 12 H s       :     0.793637  s :     0.793637
      pz      :     0.077296  p :     0.189824
      px      :     0.058026
      py      :     0.054502

 13 O s       :     3.483481  s :     3.483481
      pz      :     1.364828  p :     4.372355
      px      :     1.157782
      py      :     1.849745
      dz2     :     0.004166  d :     0.044116
      dxz     :     0.028240
      dyz     :     0.000333
      dx2y2   :     0.011298
      dxy     :     0.000078

 14 H s       :     0.677522  s :     0.677522
      pz      :     0.159236  p :     0.382962
      px      :     0.102308
      py      :     0.121418


SPIN
  0 C s       :     0.000052  s :     0.000052
      pz      :     0.000095  p :    -0.000079
      px      :    -0.000222
      py      :     0.000048
      dz2     :    -0.000237  d :    -0.000658
      dxz     :    -0.000043
      dyz     :     0.000051
      dx2y2   :    -0.000323
      dxy     :    -0.000106

  1 C s       :     0.000052  s :     0.000052
      pz      :     0.000089  p :    -0.000092
      px      :    -0.000228
      py      :     0.000047
      dz2     :    -0.000237  d :    -0.000656
      dxz     :    -0.000042
      dyz     :     0.000052
      dx2y2   :    -0.000323
      dxy     :    -0.000105

  2 H s       :    -0.000056  s :    -0.000056
      pz      :    -0.000027  p :    -0.000045
      px      :    -0.000023
      py      :     0.000005

  3 C s       :    -0.001690  s :    -0.001690
      pz      :    -0.002828  p :    -0.010375
      px      :    -0.003519
      py      :    -0.004029
      dz2     :     0.000530  d :     0.013204
      dxz     :     0.000658
      dyz     :     0.005594
      dx2y2   :     0.002405
      dxy     :     0.004018

  4 H s       :    -0.000055  s :    -0.000055
      pz      :    -0.000028  p :    -0.000046
      px      :    -0.000023
      py      :     0.000005

  5 C s       :     0.013268  s :     0.013268
      pz      :     0.054382  p :     0.155481
      px      :     0.092049
      py      :     0.009051
      dz2     :    -0.001514  d :    -0.016583
      dxz     :    -0.008840
      dyz     :    -0.000193
      dx2y2   :    -0.004815
      dxy     :    -0.001221

  6 H s       :     0.003341  s :     0.003341
      pz      :    -0.000047  p :    -0.000710
      px      :    -0.000106
      py      :    -0.000557

  7 H s       :     0.005023  s :     0.005023
      pz      :    -0.000112  p :     0.000384
      px      :     0.000299
      py      :     0.000198

  8 C s       :    -0.001691  s :    -0.001691
      pz      :    -0.002827  p :    -0.010385
      px      :    -0.003524
      py      :    -0.004035
      dz2     :     0.000531  d :     0.013203
      dxz     :     0.000657
      dyz     :     0.005592
      dx2y2   :     0.002404
      dxy     :     0.004019

  9 H s       :    -0.049835  s :    -0.049835
      pz      :     0.025684  p :     0.086890
      px      :     0.061797
      py      :    -0.000591

 10 H s       :    -0.006949  s :    -0.006949
      pz      :     0.004532  p :     0.011325
      px      :     0.006439
      py      :     0.000353

 11 H s       :     0.003341  s :     0.003341
      pz      :    -0.000047  p :    -0.000710
      px      :    -0.000106
      py      :    -0.000557

 12 H s       :     0.005021  s :     0.005021
      pz      :    -0.000112  p :     0.000382
      px      :     0.000298
      py      :     0.000197

 13 O s       :     0.017179  s :     0.017179
      pz      :     0.282337  p :     0.771504
      px      :     0.481983
      py      :     0.007184
      dz2     :    -0.000077  d :    -0.002978
      dxz     :    -0.002263
      dyz     :     0.000049
      dx2y2   :    -0.000679
      dxy     :    -0.000007

 14 H s       :    -0.026963  s :    -0.026963
      pz      :     0.015170  p :     0.030907
      px      :     0.020971
      py      :    -0.005234



                      *****************************
                      * MAYER POPULATION ANALYSIS *
                      *****************************

  NA   - Mulliken gross atomic population
  ZA   - Total nuclear charge
  QA   - Mulliken gross atomic charge
  VA   - Mayer's total valence
  BVA  - Mayer's bonded valence
  FA   - Mayer's free valence

  ATOM       NA         ZA         QA         VA         BVA        FA
  0 C      6.2148     6.0000    -0.2148     4.0460     4.0460     0.0000
  1 C      6.2150     6.0000    -0.2150     4.0463     4.0463     0.0000
  2 H      0.8637     1.0000     0.1363     0.9778     0.9778     0.0000
  3 C      6.0882     6.0000    -0.0882     4.0625     4.0620     0.0005
  4 H      0.8637     1.0000     0.1363     0.9778     0.9778     0.0000
  5 C      6.2926     6.0000    -0.2926     4.3267     4.2666     0.0601
  6 H      0.8914     1.0000     0.1086     1.0002     1.0001     0.0001
  7 H      0.8988     1.0000     0.1012     0.9992     0.9990     0.0001
  8 C      6.0884     6.0000    -0.0884     4.0626     4.0621     0.0005
  9 H      0.8592     1.0000     0.1408     1.0992     1.0631     0.0361
 10 H      0.9034     1.0000     0.0966     1.0013     1.0009     0.0004
 11 H      0.8913     1.0000     0.1087     1.0001     1.0001     0.0001
 12 H      0.8988     1.0000     0.1012     0.9992     0.9991     0.0001
 13 O      8.2833     8.0000    -0.2833     1.8126     1.0616     0.7510
 14 H      0.7474     1.0000     0.2526     0.9637     0.9605     0.0033

  Mayer bond orders larger than 0.100000
B(  0-C ,  1-C ) :   1.9715 B(  0-C ,  2-H ) :   0.9552 B(  0-C ,  8-C ) :   1.0577 
B(  1-C ,  3-C ) :   1.0576 B(  1-C ,  4-H ) :   0.9552 B(  3-C ,  5-C ) :   1.0661 
B(  3-C ,  6-H ) :   0.9659 B(  3-C ,  7-H ) :   0.9490 B(  5-C ,  8-C ) :   1.0659 
B(  5-C ,  9-H ) :   0.9564 B(  5-C , 10-H ) :   0.9543 B(  8-C , 11-H ) :   0.9660 
B(  8-C , 12-H ) :   0.9490 B( 13-O , 14-H ) :   0.9370 

-------
TIMINGS
-------

Total SCF time: 0 days 0 hours 0 min 38 sec 

Total time                  ....      38.485 sec
Sum of individual times     ....      36.799 sec  ( 95.6%)

SCF preparation             ....       1.488 sec  (  3.9%)
Fock matrix formation       ....      34.594 sec  ( 89.9%)
  Startup                   ....       0.010 sec  (  0.0% of F)
  Coulomb+Exchange Fock     ....      36.154 sec  (104.5% of F)
Diagonalization             ....       0.000 sec  (  0.0%)
Density matrix formation    ....       0.071 sec  (  0.2%)
Total Energy calculation    ....       0.029 sec  (  0.1%)
Population analysis         ....       0.027 sec  (  0.1%)
Orbital Transformation      ....       0.059 sec  (  0.2%)
Orbital Orthonormalization  ....       0.000 sec  (  0.0%)
DIIS solution               ....       0.376 sec  (  1.0%)
SOSCF solution              ....       0.153 sec  (  0.4%)
Finished LeanSCF after  38.5 sec

Maximum memory used throughout the entire LEANSCF-calculation: 21.0 MB


           ************************************************************
           *        Program running with 8 parallel MPI-processes     *
           *              working on a common directory               *
           ************************************************************

------------------------------------------------------------------------------
                         ORCA PROPERTY INTEGRAL CALCULATIONS
------------------------------------------------------------------------------

GBWName                                   ... sp.gbw
Number of atoms                           ...     15
Number of basis functions                 ...    297
Max core memory                           ...   9000 MB

Dipole integrals                          ... YES
Quadrupole integrals                      ...  NO
Linear momentum integrals                 ... YES
Angular momentum integrals                ... YES
Higher moments length integrals           ...  NO
Higher moments velocity integrals         ...  NO
Kinetic energy integrals                  ...  NO
GIAO right hand sides                     ...  NO
GIAO dipole derivative integrals          ...  NO
SOC integrals                             ...  NO
EPR diamagnetic integrals (GIAO)          ...  NO
EPR gauge integrals                       ...  NO
Field gradient integrals                  ...  NO (   0 nuclei)
Spin-dipole/Fermi contact integrals       ...  NO (   0 nuclei)
Contact density integrals                 ...  NO (   0 nuclei)
Nucleus-orbit integrals                   ...  NO (   0 nuclei)
Geometric perturbations                   ...  NO (  15 nuclei)

Choice of electric origin   ... Center of mass
Position of electric origin ... (  0.0063, -0.0008, -0.0491) 
Choice of magnetic origin   ... GIAO
Position of magnetic origin ... (  0.0000,  0.0000,  0.0000) 

Calculating integrals                     ... Electric Dipole (Length)     done (  0.0 sec)
Calculating integrals                     ... Linear Momentum              done (  0.0 sec)
Calculating integrals                     ... Angular Momentum  (ElOri)    done (  0.0 sec)

Property integrals calculated in   0.0 sec

Maximum memory used throughout the entire PROPINT-calculation: 18.8 MB


           ************************************************************
           *        Program running with 8 parallel MPI-processes     *
           *              working on a common directory               *
           ************************************************************


--------------------------------------------------------------------------------
                             ORCA-MATRIX DRIVEN CI
--------------------------------------------------------------------------------

--------------------------------
AUTOMATIC CHOICE OF INCORE LEVEL
--------------------------------

Memory available                           ...   4500.00 MB
Memory needed for S+T                      ...    219.84 MB
Memory needed for J+K                      ...    440.30 MB
Memory needed for DIIS                     ...   3077.74 MB
Memory needed for 3-ext                    ...   1828.13 MB
Memory needed for 4-ext                    ...  12085.99 MB
Memory needed for triples                  ...    507.81 MB
 -> Final InCoreLevel    ... 3
 -> check shows that triples correction can be computed


Wavefunction type
-----------------
Correlation treatment                      ...      CCSD     
Single excitations                         ... ON
Orbital optimization                       ... OFF
Calculation of Z vector                    ... OFF
Calculation of Brueckner orbitals          ... OFF
Perturbative triple excitations            ... ON
Calculation of F12 correction              ... ON
   Using RI for F12 correction             ... ON
Frozen core treatment                      ... chemical core (12 el)
Reference Wavefunction                     ... UHF
  Alpha-MOs occ    :     6 ...   23 ( 18 MO's/ 18 electrons)
  Beta-MOs occ     :     6 ...   22 ( 17 MO's/ 17 electrons)
  Alpha-MOs virt   :    24 ...  260 (237 MO's              )
  Beta-MOs virt    :    23 ...  260 (238 MO's              )
Number of AO's                             ...    261
Number of electrons                        ...     47
Number of correlated electrons             ...     35

Algorithmic settings
--------------------
Integral transformation                    ... Separate K and J transformations
K(C) Formation                             ... AO-EXCHANGE STORED
Maximum number of iterations               ...        50
Convergence tolerance (max. residuum)      ... 2.500e-05
Level shift for amplitude update           ... 2.000e-01
Maximum number of DIIS vectors             ...         7
DIIS turned on at iteration                ...         0
Damping before turning on DIIS             ...     0.500
Damping after turning on DIIS              ...     0.000
Pair specific amplitude update             ... OFF
Natural orbital iterations                 ... OFF
Perturbative natural orbital generation    ... OFF
Printlevel                                 ... 2

Memory handling:
----------------
Maximum memory for working arrays          ...   4500 MB
Data storage in matrix containers          ... UNCOMPRESSED
Data type for integral storage             ... DOUBLE
In-Core Storage of quantities:
   Amplitudes+Sigma Vector      ... YES
   J+K operators                ... YES
   DIIS vectors                 ... YES
   3-external integrals         ... NO
   4-external integrals         ... NO


Initializing the integral package          ... done
Warning: reference  - re-canonicalizations have been set to INT 1 VIRT 1
Fock densities were made 
Making Fock matrix and reference energy:

--------------------------
UNRESTRICTED FOCK OPERATOR
--------------------------

Recanonicalizing the internal orbitals
Recanonicalizing the virtual orbitals
Storing new orbitals
Time needed for Fock operator              ...            4.067 sec
Reference energy                           ...   -269.427682859

-------------------------
SHARK HALF TRANSFORMATION
-------------------------

Number of basis functions                ...    261
Number of operators                      ...      2
   Operator  0:    6-  23

   Operator  1:    6-  22

Integral generator used                  ... SHARK
Contraction scheme used                  ... SEGMENTED CONTRACTION
MaxCore in resort                        ...   9000 MB

Half transformed integrals for op=   0   ... sp.SHARK_MNPQ0.tmp
Resorted half transformed integrals      ... sp._PQMN_0.tmp
Half transformed integrals for op=   1   ... sp.SHARK_MNPQ1.tmp
Resorted half transformed integrals      ... sp._PQMN_1.tmp
Starting integral generation + half trafo... 
Half trafo (segmented) done. Total time =  6.8 sec. integrals=  5.3 sec trafo=  1.4 sec
Starting integral resorting              ... done (  0.2 sec)

SHARK half integral transformation done. Total time =  7.0 sec.

----------------------------------
J-TRAFO SECOND HALF TRANSFORMATION
----------------------------------

Generate (ij|kl)                        ... NO
Generate (ij|ka)                        ... YES
Generate (ij|ab)                        ... YES
Generate (ia|bc)                        ... NO
Generate (ab|cd)                        ... NO
Generate (pq|rs)                        ... NO

Number of operators                     ... 2
   Operator 0                           ...    6-  23 to   24- 260
   PQMN-Container name                  ... sp._PQMN_0.tmp
   IJKA-Container name    op=0,0        ... sp._IJKA_0.tmp
   IJAB-Container name    op=0,0        ... sp._IJAB_0.tmp
   IJKA-Container name    op=0,1        ... sp._IJKA_2.tmp
   IJAB-Container name    op=0,1        ... sp._IJAB_2.tmp
   Operator 1                           ...    6-  22 to   23- 260
   PQMN-Container name                  ... sp._PQMN_1.tmp
   IJKA-Container name    op=1,0        ... sp._IJKA_3.tmp
   IJAB-Container name    op=1,0        ... sp._IJAB_3.tmp
   IJKA-Container name    op=1,1        ... sp._IJKA_1.tmp
   IJAB-Container name    op=1,1        ... sp._IJAB_1.tmp

Starting integral transformations       ... done
Completed Coulomb integral formation in   0.2 sec


-------------------------
SHARK HALF TRANSFORMATION (Exchange order)
-------------------------

Number of basis functions                   ...    261
Number of operators                         ...      2
   Operator  0:    6-  23 (p-index in (p*|q*))
   Operator  0:    6- 260 (q-index in (p*|q*)
   Operator  1:    6-  22 (p-index in (p*|q*))
   Operator  1:    6- 260 (q-index in (p*|q*)
Integral generator used                     ... SHARK
Contraction scheme used                     ... SEGMENTED CONTRACTION
MaxCore in resort                           ...   9000 MB

Half transformed integrals for op=   0      ... sp.SHARK_MNPQ0.tmp
Resorted half transformed integrals         ... sp._PMQN_0.tmp
Half transformed integrals for op=   1      ... sp.SHARK_MNPQ1.tmp
Resorted half transformed integrals         ... sp._PMQN_1.tmp
Half transformed integrals for op=0/1       ... sp.SHARK_MNPQ01.tmp
Resorted half transformed integrals         ... sp._PMQN_2.tmp
Half transformed integrals for op=1/0       ... sp.SHARK_MNPQ10.tmp
Resorted half transformed integrals         ... sp._PMQN_3.tmp

Half trafo (segmented) done. Total time = 34.5 sec. integrals=  8.1 sec trafo= 16.4 sec

----------------------
SHARK INTEGRAL SORTING (Exchange)
----------------------

Input container                             ... sp.SHARK_MNPQ0.tmp
Output container                            ... sp._PMQN_0.tmp
Range of AO-indices                         ...    0 -  260
Range of bra indices i                      ...    6 -   23
Range of ket indices j                      ...    6 -  260
Symmetric i,j range                         ... NO
Number of (i,j) pairs generated             ... 4590
Max Core memory in MB                       ...   9000

Available core memory in MB                 ...   8901.55
MB needed for one item                      ...      0.52
Fixed MB needed                             ...      0.00
Number of items                             ...       574
Number of batches                           ...         1
Items treated per batch                     ...       574
Batch   0                                   ...      0-   573 (   574)
   => Closing output file and leaving

----------------------
SHARK INTEGRAL SORTING (Exchange)
----------------------

Input container                             ... sp.SHARK_MNPQ1.tmp
Output container                            ... sp._PMQN_1.tmp
Range of AO-indices                         ...    0 -  260
Range of bra indices i                      ...    6 -   22
Range of ket indices j                      ...    6 -  260
Symmetric i,j range                         ... NO
Number of (i,j) pairs generated             ... 4335
Max Core memory in MB                       ...   9000

Available core memory in MB                 ...   8902.34
MB needed for one item                      ...      0.52
Fixed MB needed                             ...      0.00
Number of items                             ...       542
Number of batches                           ...         1
Items treated per batch                     ...       542
Batch   0                                   ...      0-   541 (   542)
   => Closing output file and leaving

----------------------
SHARK INTEGRAL SORTING (Exchange)
----------------------

Input container                             ... sp.SHARK_MNPQ01.tmp
Output container                            ... sp._PMQN_2.tmp
Range of AO-indices                         ...    0 -  260
Range of bra indices i                      ...    6 -   23
Range of ket indices j                      ...    6 -  260
Symmetric i,j range                         ... NO
Number of (i,j) pairs generated             ... 4590
Max Core memory in MB                       ...   9000

Available core memory in MB                 ...   8903.12
MB needed for one item                      ...      0.52
Fixed MB needed                             ...      0.00
Number of items                             ...       574
Number of batches                           ...         1
Items treated per batch                     ...       574
Batch   0                                   ...      0-   573 (   574)
   => Closing output file and leaving

----------------------
SHARK INTEGRAL SORTING (Exchange)
----------------------

Input container                             ... sp.SHARK_MNPQ10.tmp
Output container                            ... sp._PMQN_3.tmp
Range of AO-indices                         ...    0 -  260
Range of bra indices i                      ...    6 -   22
Range of ket indices j                      ...    6 -  260
Symmetric i,j range                         ... NO
Number of (i,j) pairs generated             ... 4335
Max Core memory in MB                       ...   9000

Available core memory in MB                 ...   8903.91
MB needed for one item                      ...      0.52
Fixed MB needed                             ...      0.00
Number of items                             ...       542
Number of batches                           ...         1
Items treated per batch                     ...       542
Batch   0                                   ...      0-   541 (   542)
   => Closing output file and leaving
done ( 14.1 sec)

SHARK half integral transformation done. Total time = 48.7 sec.

----------------------------------
K-TRAFO SECOND HALF TRANSFORMATION
----------------------------------

Generate (ik|jl)                        ... YES
Generate (ik|ja)                        ... YES
Generate (ia|jb)                        ... YES
Generate (ib|ac)                        ... YES
Generate (ac|bd)                        ... NO
Generate (pr|qs)                        ... NO

Number of operators                     ... 2
   Operator 0                           ...    6-  23 to   24- 260
   Operator 1                           ...    6-  22 to   23- 260

Starting integral transformations       ... done
Completed Exchange integral formation in  15.1 sec


------------------------------
Initializing F12 data (SHARK)
------------------------------

Mapping basis set                  ... done
Dimension of the orbital basis set  = 261
Dimension of the CABS basis set     = 927
Dimension of the AUX basis set      = 756
Threshold for CABS orthogonalization = 1.000e-08
Test shows that OBS-bases are identical for ORCA and SHARK (good)
Test shows that CABS-bases are identical for ORCA and SHARK (good)
Will use an exponential correlation factor -Exp(-gamma r12)/gamma (gamma= 0.900) fit to 6 Gaussians 
Correlation factor:   
  NGauss  :          6      
  Gaussian expansion: 
    a( 0)=    0.1948458958396247  d( 0)=   -0.3837757050057319 
    a( 1)=    0.9387038387678155  d( 1)=   -0.3334018174260626 
    a( 2)=    3.4610351909878712  d( 2)=   -0.1753946777841836 
    a( 3)=   11.7049812253407470  d( 3)=   -0.1006409546144490 
    a( 4)=   44.2276119656826054  d( 4)=   -0.0614475916279048 
    a( 5)=  245.3721739425115800  d( 5)=   -0.0379425509353721 
Calculating one-electron matrices                       ... (SHARK)done (      0.2 sec)
Calculating pre-screening matrices:                     ... 
     (LIBINT-0)       .... 1/r12 done          (      0.1 sec)
     (LIBINT-1)       .... f12/r12 done        (      0.1 sec)
     (LIBINT-2)       .... f12 done            (      0.1 sec)
     (LIBINT-3)       .... f12^2 done          (      0.1 sec)
     (LIBINT-4)       .... [f12,[T1,f12]] done (      0.1 sec)
                                                        ... done (      0.5 sec)
Making CABS spaces                                      ... done (      0.2 sec)
Calculating 2-index 2-center F12 integrals              ... 
Two index explicit correlation integrals  op=0          ...(SHARK-0) done (      0.0 sec)  Metric   done (      0.0 sec)
Two index explicit correlation integrals  op=1          ...(SHARK-1) done (      0.0 sec)  Metric   done (      0.0 sec)
Two index explicit correlation integrals  op=2          ...(SHARK-2) done (      0.0 sec)  Metric   done (      0.0 sec)
Two index explicit correlation integrals  op=3          ...(SHARK-3) done (      0.0 sec)  Metric   done (      0.0 sec)
Two index explicit correlation integrals  op=4          ...(SHARK-4) done (      0.0 sec)  Metric   done (      0.2 sec)
                                                                     done (      0.3 sec)

-----------------------
SPIN UNRESTRICTED GUESS
-----------------------

Spin-components of the MP2 energy:
EMP2(aa)=     -0.125298631
EMP2(bb)=     -0.112492748
EMP2(ab)=     -0.738626116

Initial guess performed in     0.315 sec
E(0)                                       ...   -269.427682859
E(MP2)                                     ...     -0.976417495
Initial E(tot)                             ...   -270.404100354
<T|T>                                      ...      0.312712717
Number of pairs included                   ... 595

------------------------------------------------
                  UHF COUPLED CLUSTER ITERATIONS
------------------------------------------------

Number of amplitudes to be optimized       ...     25413036

Iter       E(tot)           E(Corr)          Delta-E          Residual     Time      <S|S>**1/2
  0   -270.404100364     -0.976417505     -0.000000010      0.022571849  110.52      0.000077520
                           *** Turning on DIIS ***
  1   -270.427038282     -0.999355423     -0.022937918      0.007147923  117.71      0.051297592
  2   -270.452163528     -1.024480669     -0.025125246      0.005558685  125.33      0.065592690
  3   -270.459476506     -1.031793646     -0.007312978      0.003921842  114.10      0.080878749
  4   -270.461464681     -1.033781822     -0.001988176      0.002947543  113.98      0.091028617
  5   -270.462312822     -1.034629963     -0.000848140      0.001612010  114.44      0.100654212
  6   -270.462753840     -1.035070981     -0.000441018      0.000661141  114.44      0.107580702
  7   -270.462883227     -1.035200368     -0.000129387      0.000209855  114.26      0.110738553
  8   -270.462905781     -1.035222922     -0.000022554      0.000134483  114.37      0.111603327
  9   -270.462915039     -1.035232180     -0.000009258      0.000089106  114.85      0.111950263
 10   -270.462917014     -1.035234155     -0.000001975      0.000047058  114.80      0.112061282
[...]
      dxz     :     0.055877
      dyz     :     0.110766
      dx2y2   :     0.088221
      dxy     :     0.120481
  2 H s       :     0.786436  s :     0.786436
      pz      :     0.066479  p :     0.197316
      px      :     0.069667
      py      :     0.061170
  3 C s       :     2.684403  s :     2.684403
      pz      :     0.984059  p :     2.914270
      px      :     0.962624
      py      :     0.967588
      dz2     :     0.071225  d :     0.426419
      dxz     :     0.088522
      dyz     :     0.089643
      dx2y2   :     0.067791
      dxy     :     0.109237
  4 H s       :     0.786439  s :     0.786439
      pz      :     0.066486  p :     0.197318
      px      :     0.069674
      py      :     0.061158
  5 C s       :     2.693442  s :     2.693442
      pz      :     0.977569  p :     2.838991
      px      :     0.916487
      py      :     0.944935
      dz2     :     0.071589  d :     0.419026
      dxz     :     0.092270
      dyz     :     0.067614
      dx2y2   :     0.096575
      dxy     :     0.090979
  6 H s       :     0.773606  s :     0.773606
      pz      :     0.059412  p :     0.197165
      px      :     0.064711
      py      :     0.073042
  7 H s       :     0.773463  s :     0.773463
      pz      :     0.080915  p :     0.200066
      px      :     0.061255
      py      :     0.057897
  8 C s       :     2.684389  s :     2.684389
      pz      :     0.984048  p :     2.914265
      px      :     0.962634
      py      :     0.967583
      dz2     :     0.071244  d :     0.426418
      dxz     :     0.088524
      dyz     :     0.089616
      dx2y2   :     0.067789
      dxy     :     0.109245
  9 H s       :     0.674166  s :     0.674166
      pz      :     0.141478  p :     0.410179
      px      :     0.194805
      py      :     0.073896
 10 H s       :     0.780974  s :     0.780974
      pz      :     0.090789  p :     0.199696
      px      :     0.057306
      py      :     0.051601
 11 H s       :     0.773561  s :     0.773561
      pz      :     0.059401  p :     0.197156
      px      :     0.064719
      py      :     0.073037
 12 H s       :     0.773463  s :     0.773463
      pz      :     0.080921  p :     0.200069
      px      :     0.061252
      py      :     0.057895
 13 O s       :     3.471808  s :     3.471808
      pz      :     1.385284  p :     4.395513
      px      :     1.190386
      py      :     1.819843
      dz2     :     0.010004  d :     0.070167
      dxz     :     0.032209
      dyz     :     0.006160
      dx2y2   :     0.015815
      dxy     :     0.005979
 14 H s       :     0.681107  s :     0.681107
      pz      :     0.166613  p :     0.407301
      px      :     0.109176
      py      :     0.131512

SPIN
  0 C s       :    -0.000004  s :    -0.000004
      pz      :    -0.000168  p :    -0.000330
      px      :    -0.000117
      py      :    -0.000045
      dz2     :    -0.000209  d :    -0.000031
      dxz     :     0.000128
      dyz     :     0.000278
      dx2y2   :    -0.000176
      dxy     :    -0.000052
  1 C s       :    -0.000005  s :    -0.000005
      pz      :    -0.000169  p :    -0.000332
      px      :    -0.000118
      py      :    -0.000045
      dz2     :    -0.000209  d :    -0.000029
      dxz     :     0.000129
      dyz     :     0.000279
      dx2y2   :    -0.000176
      dxy     :    -0.000051
  2 H s       :     0.000078  s :     0.000078
      pz      :    -0.000063  p :    -0.000073
      px      :    -0.000008
      py      :    -0.000002
  3 C s       :    -0.000817  s :    -0.000817
      pz      :    -0.001877  p :    -0.002898
      px      :     0.000685
      py      :    -0.001706
      dz2     :     0.000308  d :     0.016187
      dxz     :     0.000743
      dyz     :     0.007459
      dx2y2   :     0.002810
      dxy     :     0.004866
  4 H s       :     0.000078  s :     0.000078
      pz      :    -0.000063  p :    -0.000074
      px      :    -0.000008
      py      :    -0.000002
  5 C s       :     0.011345  s :     0.011345
      pz      :     0.064284  p :     0.182403
      px      :     0.111754
      py      :     0.006365
      dz2     :    -0.000471  d :    -0.006245
      dxz     :    -0.003648
      dyz     :     0.000052
      dx2y2   :    -0.001793
      dxy     :    -0.000385
  6 H s       :     0.004735  s :     0.004735
      pz      :     0.000074  p :    -0.000198
      px      :     0.000072
      py      :    -0.000344
  7 H s       :     0.007591  s :     0.007591
      pz      :     0.000029  p :     0.001378
      px      :     0.000781
      py      :     0.000568
  8 C s       :    -0.000819  s :    -0.000819
      pz      :    -0.001876  p :    -0.002913
      px      :     0.000675
      py      :    -0.001712
      dz2     :     0.000308  d :     0.016183
      dxz     :     0.000742
      dyz     :     0.007456
      dx2y2   :     0.002809
      dxy     :     0.004868
  9 H s       :    -0.011153  s :    -0.011153
      pz      :     0.025317  p :     0.085206
      px      :     0.060515
      py      :    -0.000626
 10 H s       :    -0.002863  s :    -0.002863
      pz      :     0.004941  p :     0.013246
      px      :     0.008139
      py      :     0.000167
 11 H s       :     0.004735  s :     0.004735
      pz      :     0.000074  p :    -0.000198
      px      :     0.000072
      py      :    -0.000344
 12 H s       :     0.007587  s :     0.007587
      pz      :     0.000029  p :     0.001375
      px      :     0.000779
      py      :     0.000567
 13 O s       :     0.019034  s :     0.019034
      pz      :     0.230364  p :     0.638457
      px      :     0.401418
      py      :     0.006676
      dz2     :     0.000921  d :     0.005419
      dxz     :     0.001544
      dyz     :     0.000483
      dx2y2   :     0.001559
      dxy     :     0.000913
 14 H s       :    -0.014620  s :    -0.014620
      pz      :     0.012575  p :     0.028564
      px      :     0.019981
      py      :    -0.003993


                      *****************************
                      * MAYER POPULATION ANALYSIS *
                      *****************************

  NA   - Mulliken gross atomic population
  ZA   - Total nuclear charge
  QA   - Mulliken gross atomic charge
  VA   - Mayer's total valence
  BVA  - Mayer's bonded valence
  FA   - Mayer's free valence

  ATOM       NA         ZA         QA         VA         BVA        FA
  0 C      6.1922     6.0000    -0.1922     4.1098     3.7051     0.4047
  1 C      6.1924     6.0000    -0.1924     4.1101     3.7054     0.4047
  2 H      0.8493     1.0000     0.1507     0.9783     0.9120     0.0663
  3 C      6.1762     6.0000    -0.1762     4.1576     3.8149     0.3427
  4 H      0.8493     1.0000     0.1507     0.9783     0.9120     0.0663
  5 C      6.3295     6.0000    -0.3295     4.3647     3.9227     0.4420
  6 H      0.8551     1.0000     0.1449     0.9943     0.9254     0.0689
  7 H      0.8636     1.0000     0.1364     0.9938     0.9233     0.0705
  8 C      6.1764     6.0000    -0.1764     4.1576     3.8149     0.3427
  9 H      0.8241     1.0000     0.1759     1.1135     1.0276     0.0859
 10 H      0.8631     1.0000     0.1369     0.9924     0.9237     0.0687
 11 H      0.8550     1.0000     0.1450     0.9943     0.9254     0.0689
 12 H      0.8636     1.0000     0.1364     0.9938     0.9234     0.0705
 13 O      8.3268     8.0000    -0.3268     2.1375     1.2301     0.9074
 14 H      0.7832     1.0000     0.2168     1.0105     0.9380     0.0725

  Mayer bond orders larger than 0.100000
B(  0-C ,  1-C ) :   1.7585 B(  0-C ,  2-H ) :   0.8912 B(  0-C ,  8-C ) :   1.0126 
B(  1-C ,  3-C ) :   1.0125 B(  1-C ,  4-H ) :   0.8912 B(  3-C ,  5-C ) :   0.9920 
B(  3-C ,  6-H ) :   0.8982 B(  3-C ,  7-H ) :   0.8798 B(  5-C ,  8-C ) :   0.9918 
B(  5-C ,  9-H ) :   0.7938 B(  5-C , 10-H ) :   0.8894 B(  5-C , 13-O ) :   0.1473 
B(  8-C , 11-H ) :   0.8983 B(  8-C , 12-H ) :   0.8798 B(  9-H , 13-O ) :   0.2094 
B( 13-O , 14-H ) :   0.9126 



--------------------------------------------------------------------------------
                                    TIMINGS
--------------------------------------------------------------------------------


Total execution time                   ...     2684.773 sec

Fock Matrix Formation                  ...        4.067 sec (  0.2%)
Initial Guess                          ...        0.315 sec (  0.0%)
DIIS Solver                            ...       32.768 sec (  1.2%)
State Vector Update                    ...        1.822 sec (  0.1%)
Sigma-vector construction              ...     1347.892 sec ( 50.2%)
  <0|H|D>                              ...        0.281 sec (  0.0% of sigma)
  <D|H|D>(0-ext Fock)                  ...        3.722 sec (  0.3% of sigma)
  <D|H|D>(0-ext)                       ...       29.579 sec (  2.2% of sigma)
  <D|H|D>(2-ext Fock)                  ...        1.311 sec (  0.1% of sigma)
  <D|H|D>(2-ext)                       ...      101.056 sec (  7.5% of sigma)
  <D|H|D>(4-ext)                       ...      751.792 sec ( 55.8% of sigma)
  <S|H|0>                              ...      219.858 sec ( 16.3% of sigma)
  <S|H|S>                              ...        0.004 sec (  0.0% of sigma)
  <S|H|D>(1-ext)                       ...        0.404 sec (  0.0% of sigma)
  <D|H|S>(1-ext)                       ...        2.021 sec (  0.1% of sigma)
  Fock-dressing                        ...       39.924 sec (  3.0% of sigma)
  (ik|jl)-dressing                     ...       30.356 sec (  2.3% of sigma)
  (ij|ab),(ia|jb)-dressing             ...      160.421 sec ( 11.9% of sigma)
  Pair energies                        ...        0.248 sec (  0.0% of sigma)
Total Time for computing (T)           ...      984.152 sec ( 36.7% of ALL)
  I/O of integral and amplitudes       ...       90.007 sec (  9.1% of (T))
  External N**7 contributions          ...      638.782 sec ( 64.9% of (T))
  Internal N**7 contributions          ...       62.277 sec (  6.3% of (T))
  N**6 triples energy contributions    ...      191.685 sec ( 19.5% of (T))


Maximum memory used throughout the entire MDCI-calculation: 7237.5 MB

-------------------------   --------------------
FINAL SINGLE POINT ENERGY      -270.657669874522
-------------------------   --------------------



           ************************************************************
           *        Program running with 8 parallel MPI-processes     *
           *              working on a common directory               *
           ************************************************************

------------------------------------------------------------------------------
                              ORCA PROPERTY CALCULATIONS
------------------------------------------------------------------------------

GBWName                                 ... sp.gbw
Number of atoms                         ...     15
Number of basis functions               ...    297
Max core memory                         ...   9000 MB

Electric properties:
Dipole moment                           ... YES
Quadrupole moment                       ...  NO
Static polarizability (Dipole/Dipole)   ...  NO
Static polarizability (Dipole/Quad.)    ...  NO
Static polarizability (Quad./Quad.)     ...  NO
Static polarizability (Velocity)        ...  NO
Static hyperpolarizability              ...  NO

Atomic electric properties:
Dipole moment                           ...  NO
Quadrupole moment                       ...  NO
Static polarizability                   ...  NO

Choice of electric origin               ... Center of mass
Position of electric origin             ...     0.006255    -0.000811    -0.049144

General magnetic properties:
Magnetizability                         ...  NO

EPR properties:
g-Tensor (aka g-matrix)                 ...  NO
Zero-Field splitting spin-orbit         ...  NO
Zero-field splitting spin-spin          ...  NO
Hyperfine couplings                     ...  NO (   0 nuclei)
Quadrupole couplings                    ...  NO (   0 nuclei)
Contact density                         ...  NO (   0 nuclei)

NMR properties:
Chemical shifts                         ...  NO (   0 nuclei)
Spin-rotation constants                 ...  NO (   0 nuclei)
Spin-spin couplings                     ...  NO (   0 nuclei,    0 pairs)

Choice of magnetic origin               ... GIAO
Position of magnetic origin             ...     0.000000     0.000000     0.000000

Properties with geometric perturbations:
SCF Hessian                             ...  NO
IR spectrum                             ...  NO
VCD spectrum                            ...  NO
X-ray spectroscopy properties:
SCF XES/XAS/RIXS spectra                ...  NO

SCF SOC stabilization energy            ...  NO
Diagonal Born-Oppenheimer correction    ...  NO

-------------
DIPOLE MOMENT
-------------

Method             : SCF
Type of density    : Electron Density
Multiplicity       :   2
Irrep              :   0
Energy             :  -269.4276828504580976 Eh
Basis              : AO
                                X                 Y                 Z
Electronic contribution:      0.652242297      -0.002812774      -1.693634076
Nuclear contribution   :     -0.375501994       0.006178902       2.309240765
                        -----------------------------------------
Total Dipole Moment    :      0.276740303       0.003366128       0.615606689
                        -----------------------------------------
Magnitude (a.u.)       :      0.674957867
Magnitude (Debye)      :      1.715606556



--------------------
Rotational spectrum 
--------------------
 
Rotational constants in cm-1:             0.169201             0.077466             0.068289 
Rotational constants in MHz :          5072.528194          2322.377371          2047.266553 

Dipole components along the rotational axes: 
x,y,z [a.u.] :    -0.258716     0.003951     0.623393 
x,y,z [Debye]:    -0.657603     0.010042     1.584539 

 

-------------
DIPOLE MOMENT
-------------

Method             : MDCI(SD)
Type of density    : Electron Density
Multiplicity       :   2
Level              : Linearized density
Irrep              :   0
Energy             :     0.0000000000000000 Eh
Basis              : AO
                                X                 Y                 Z
Electronic contribution:      0.248164888      -0.002822576      -1.575998829
Nuclear contribution   :     -0.375501994       0.006178902       2.309240765
                        -----------------------------------------
Total Dipole Moment    :     -0.127337106       0.003356326       0.733241937
                        -----------------------------------------
Magnitude (a.u.)       :      0.744224255
Magnitude (Debye)      :      1.891667722



--------------------
Rotational spectrum 
--------------------
 
Rotational constants in cm-1:             0.169201             0.077466             0.068289 
Rotational constants in MHz :          5072.528194          2322.377371          2047.266553 

Dipole components along the rotational axes: 
x,y,z [a.u.] :     0.148612     0.003738     0.729226 
x,y,z [Debye]:     0.377742     0.009500     1.853545 

 

Dipole moment calculation done in   0.0 sec 

Maximum memory used throughout the entire PROP-calculation: 17.1 MB

--------------------------------
SUGGESTED CITATIONS FOR THIS RUN
--------------------------------

Below you find a list of papers that are relevant to this ORCA run
We neither can nor want to force you to cite these papers, but we appreciate if you do
You receive ORCA, which is the product of decades of hard work by many enthusiastic individuals, for free
The only thing we kindly ask in return is that you cite our papers,
We deeply appreciate it, if you show your appreciation for ORCA by not just citing the generic ORCA reference.

Please note that relegating all ORCA citations to the supporting information does *not* help us.
SI sections are not indexed - citations you put there will not count into any citation statistics
But we need these citations in order to attract the funding resources that allow us to do what we are doing

Therefore, if you are a happy ORCA user, please consider citing a few of the papers listed below in the main body of your paper

In addition to the list printed below, the program has created the file sp.bibtex that contains the list in bibtex format
You can import this file easily into all common literature databanks and citation aid programs

It goes without saying that in many instances, there are alternative algorithms to achieve similar
results as the ones you have gotten from ORCA. It is, of course, also the case that in some instances
ORCA just re-implements algorithms worked out by others. We are fully aware of that and we are also
fully appreciative of our colleagues work. Hence this citation list should not be read as indicating
that the listed papers, which are focused on our own work, are the only ones worth citing. It simply
meant to make it easier for users to cite ORCA specific papers. It is not a substitute for doing your
own literature research and citing the relevant literature in a scientifically appropriate manner.

List of essential papers. We consider these as the minimum necessary citations

  1. Neese, F.
     Software update: the ORCA program system, version 6.0
     WIRES Comput. Molec. Sci. 2025 15(1), e70019
     doi.org/10.1002/wcms.70019

List of papers to cite with high priority. The work reported in these papers was absolutely
necessary for this run to complete.
Our perspective: the developers of density functionals and basis sets usually get cited in chemistry papers
Good! But without the algorithms to do something with them, the functionals or basis sets would not do anything.
Hence, in our opinion, the algorithm design and method developments papers are equally worthy of getting cited

  1. Pavosevic, F.; Neese, F.; Valeev, E.F.
     Geminal-spanning orbitals make explicitly correlated reduced-scaling coupled-cluster methods robust, yet simple
     J. Chem. Phys. 2014 141 , 
     doi.org/10.1063/1.4890002
  2. Neese, F.
     The SHARK Integral Generation and Digestion System
     J. Comp. Chem. 2022 44(3), 381
     doi.org/10.1002/jcc.26942

List of suggested additional citations. These are papers that are important in the 'surrounding' of 
of this run, or papers that preceded the highly important papers. If you like your results we are grateful for a citation.

  1. Neese, F.
     The ORCA program system
     WIRES Comput. Molec. Sci. 2012 2(1), 73-78
     doi.org/10.1002/wcms.81
  2. Neese, F.
     Software update: the ORCA program system, version 4.0
     WIRES Comput. Molec. Sci. 2018 8(1), 1-6
     doi.org/10.1002/wcms.1327
  3. Neese, F.; Wennmohs, F.; Becker, U.; Riplinger, C.
     The ORCA quantum chemistry program package
     J. Chem. Phys. 2020 152(22), 224108
     doi.org/10.1063/5.0004608
  4. Neese, F.
     Software update: The ORCA program system—Version 5.0
     WIRES Comput. Molec. Sci. 2022 12(1), e1606
     doi.org/10.1002/wcms.1606

List of optional additional citations

  1. Neese, F.
     Approximate second-order SCF convergence for spin unrestricted wavefunctions
     Chem. Phys. Lett. 2000 325(1-3), 93-98
     doi.org/10.1016/s0009-2614(00)00662-x

Timings for individual modules:

Sum of individual times          ...     2736.358 sec (=  45.606 min)
Startup calculation              ...        3.563 sec (=   0.059 min)   0.1 %
SCF iterations                   ...       40.642 sec (=   0.677 min)   1.5 %
Property integrals               ...        1.858 sec (=   0.031 min)   0.1 %
Property calculations            ...        1.759 sec (=   0.029 min)   0.1 %
MDCI module                      ...     2688.536 sec (=  44.809 min)  98.3 %
                             ****ORCA TERMINATED NORMALLY****
TOTAL RUN TIME: 0 days 0 hours 45 minutes 38 seconds 61 msec
