
                                 *****************
                                 * O   R   C   A *
                                 *****************

                                            #,                                       
                                            ###                                      
                                            ####                                     
                                            #####                                    
                                            ######                                   
                                           ########,                                 
                                     ,,################,,,,,                         
                               ,,#################################,,                 
                          ,,##########################################,,             
                       ,#########################################, ''#####,          
                    ,#############################################,,   '####,        
                  ,##################################################,,,,####,       
                ,###########''''           ''''###############################       
              ,#####''   ,,,,##########,,,,          '''####'''          '####       
            ,##' ,,,,###########################,,,                        '##       
           ' ,,###''''                  '''############,,,                           
         ,,##''                                '''############,,,,        ,,,,,,###''
      ,#''                                            '''#######################'''  
     '                                                          ''''####''''         
             ,#######,   #######,   ,#######,      ##                                
            ,#'     '#,  ##    ##  ,#'     '#,    #''#        ,####,    ,#,          
            ##       ##  ##   ,#'  ##            #'  '#       #'       ,# #          
            ##       ##  #######   ##           ,######,      #####,      #          
            '#,     ,#'  ##    ##  '#,     ,#' ,#      #,     #,   #      #          
             '#######'   ##     ##  '#######'  #'      '#     '####' #    #          



                #########################################################
                #                        -***-                          #
                #          Department of theory and spectroscopy        #
                #                                                       #
                #                      Frank Neese                      #
                #                                                       #
                #     Directorship, Architecture, Infrastructure        #
                #                    SHARK, DRIVERS                     #
                #        Core code/Algorithms in most modules           #
                #                                                       #
                #        Max Planck Institute fuer Kohlenforschung      #
                #                Kaiser Wilhelm Platz 1                 #
                #                 D-45470 Muelheim/Ruhr                 #
                #                      Germany                          #
                #                                                       #
                #                  All rights reserved                  #
                #                        -***-                          #
                #########################################################


                         Program Version 6.1.1  -  RELEASE   -
                                (GIT: $487d211c$)
                          ($2025-11-21 10:33:24 +0100$)


 With contributions from (in alphabetic order):
[Max-Planck-Institut fuer Kohlenforschung]                               
  Daniel Aravena         : Magnetic Suceptibility                        
  Michael Atanasov       : Ab Initio Ligand Field Theory (pilot matlab implementation)
  Alexander A. Auer      : GIAO ZORA, VPT2 properties, NMR spectrum      
  Ute Becker             : All parallelization in ORCA, NUMFREQ, NUMCALC 
  Giovanni Bistoni       : ED, misc. LED, open-shell LED, HFLD           
  Dmytro Bykov           : pre 5.0 version of the SCF Hessian            
  Marcos Casanova-Páez   : Triplet and SCS-CIS(D). UHF-(DLPNO)-IP/EA/STEOM-CCSD. UHF-CVS-IP/STEOM-CCSD   
  Vijay G. Chilkuri      : MRCI spin determinant printing, contributions to CSF-ICE 
  Pauline Colinet        : FMM embedding                                 
  Dipayan Datta          : RHF DLPNO-CCSD density                        
  Achintya Kumar Dutta   : EOM-CC, STEOM-CC                              
  Nicolas Foglia         : Exact transition moments, OPA infrastructure, MCD improvements    
  Dmitry Ganyushin       : Spin-Orbit,Spin-Spin,Magnetic field MRCI      
  Miquel Garcia-Rates    : C-PCM and meta-GGA Hessian, CCSD/C-PCM, Gaussian charge scheme 
  Tiago L. C. Gouveia    : GS-ROHF, GS-ROCIS                             
  Yang Guo               : DLPNO-NEVPT2, F12-NEVPT2, CIM, IAO-localization        
  Andreas Hansen         : Spin unrestricted coupled pair/coupled cluster methods 
  Ingolf Harden          : AUTO-CI MPn and infrastructure                
  Benjamin Helmich-Paris : MC-RPA, TRAH-(SCF,CASSCF), AVAS, COSX integrals, SCF dyn. polar., MC-PDFT, srDFT 
  Lee Huntington         : MR-EOM, pCC                                   
  Robert Izsak           : Overlap fitted RIJCOSX, COSX-SCS-MP3, EOM     
  Riya Kayal             : Wick's Theorem for AUTO-CI, AUTO-CI UHF-CCSDT 
  Emily Kempfer          : AUTO-CI RHF CISDT and CCSDT, approximate NEVPT4
  Christian Kollmar      : KDIIS, OOCD, Brueckner-CCSD(T), CCSD density, CASPT2, CASPT2-K, improved NEVPT2 
  Axel Koslowski         : Symmetry handling                             
  Simone Kossmann        : meta-GGA functionals, TD-DFT gradient, OOMP2, (MP2 Hessian; deprecated post 5.0) 
  Lucas Lang             : DCDCAS, Hyperfine gauge corrections, ICE-SOC+SSC
  Marvin Lechner         : AUTO-CI (C++ implementation), FIC-MRCC        
  Spencer Leger          : CASSCF response                               
  Dagmar Lenk            : GEPOL surface, SMD, ORCA-2-JSON               
  Dimitrios Liakos       : Extrapolation schemes; Compound Job, Property file
  Dimitrios Manganas     : Further ROCIS development; embedding schemes. LFT, Crystal Embedding 
  Dimitrios Pantazis     : SARC Basis sets                               
  Anastasios Papadopoulos: AUTO-CI, single reference methods and gradients 
  Taras Petrenko         : pre 6.0 DFT Hessian and TD-DFT gradient,  ECA, NRVS 
  Petra Pikulova         : Analytic Raman intensities                    
  Peter Pinski           : DLPNO-MP2, DLPNO-MP2 Gradient                 
  Shashank Vittal Rao    : ES-AILFT, MagRelax                            
  Christoph Reimann      : Effective Core Potentials                     
  Marius Retegan         : Local ZFS, SOC                                
  Christoph Riplinger    : Optimizer, TS searches, QM/MM, DLPNO-CCSD(T), (RO)-DLPNO pert. Triples 
  Michael Roemelt        : Original ROCIS implementation, recursive CI coupling coefficients
  Masaaki Saitow         : Open-shell DLPNO-CCSD energy and density      
  Barbara Sandhoefer     : DKH picture change effects                    
  Yorick L. A. Schmerwitz: GMF and freeze-and-release deltaSCF, NEB S-IDPP initial path                    
  Kantharuban Sivalingam : CASSCF convergence/infrastructure, NEVPT2, NEVPT3, NEVPT4(SD), FIC-MRCI and CEPA variants
  Bernardo de Souza      : ESD, SOC TD-DFT                               
  Georgi L. Stoychev     : AutoAux, RI-MP2 NMR, DLPNO-MP2 response, X2C  
  Van Anh Tran           : RI-MP2 g-tensors                              
  Willem Van den Heuvel  : Paramagnetic NMR                              
  Zikuan Wang            : NOTCH, Electric field optimization            
  Frank Wennmohs         : Technical directorship and infrastructure     
  Hang Xu                : AUTO-CI-Response properties                   
                                                                         
[FACCTs GmbH]                                                            
  Markus Bursch, Nicolas Foglia, Miquel Garcia-Rates, Ingolf Harden, Hagen Neugebauer, Anastasios Papadopoulos, 
  Christoph Riplinger, Bernardo de Souza, Georgi L. Stoychev                                                    
                                                                 
  APM, various basis sets, CI-OPT, improved COSX, DLPNO-Multilevel,           
  DOCKER, DRACO, updates on ESD, Fragmentator, GOAT, IRC, LR-CPCM, L-BFGS, MBIS, meta-GGA TD-DFT gradient, ML-optimized integration grids, 
  MM, NACMEs, nearIR, NEB, NEB-TS, NL-DFT gradient (VV10), 2- and 3-layer-ONIOM, interface openCOSMO-RS, QMMM,   
  Crystal-QMMM, RESP, rigid body optimization, SF, symmetry and pop. for TD-DFT, various functionals, SOLVATOR                                   
                                                                         
[Other institutions]                                                     
  V. Asgeirsson          : NEB                                           
  Christoph Bannwarth    : sTDA-DFT, sTD-DFT, PBEh-3c, B97-3c, D3        
  Giovanni Bistoni       : ETS/NOCV, ADLD/ADEX, COVALED                  
  Martin Brehm           : Molecular dynamics                            
  Ronald Cardenas        : ETS/NOCV                                      
  Martina Colucci        : COVALED                                       
  Sebastian Ehlert       : rSCAN, r2SCAN, r2SCAN-3c, D4, dhf basis sets  
  Marvin Friede          : D4 for Fr, Ra, Ac-Lr                          
  Lars Goerigk           : TD-DFT with DH, B97 family of functionals     
  Stefan Grimme          : VdW corrections, initial TS optimization, DFT functionals, gCP, sTDA/sTD-DF 
  Waldemar Hujo          : DFT-NL                                        
  H. Jonsson             : NEB                                           
  Holger Kruse           : gCP                                           
  Marcel Mueller         : wB97X-3c, vDZP basis set                      
  Hagen Neugebauer       : wr2SCAN, Native XTB                           
  Gianluca Regni         : ADLD/ADEX                                     
  Tobias Risthaus        : pre 6.0 range-separated hybrid DFT and stability analysis
  Lukas Wittmann         : regularized MP2, r2SCAN double-hybrids, wr2SCAN        
                                                                         
We gratefully acknowledge several colleagues who have allowed us to      
interface, adapt or use parts of their codes:                            
  Ed Valeev, F. Pavosevic, A. Kumar             : LibInt (2-el integral package), F12 methods 
  Garnet Chan, S. Sharma, J. Yang, R. Olivares  : DMRG                   
  Ulf Ekstrom                                   : XCFun DFT Library      
  Mihaly Kallay                                 : mrcc  (arbitrary order and MRCC methods)
  Frank Weinhold                                : gennbo (NPA and NBO analysis)           
  Simon Mueller                                 : openCOSMO-RS                            
  Christopher J. Cramer and Donald G. Truhlar   : smd solvation model                     
  S Lehtola, MJT Oliveira, MAL Marques          : LibXC Library                           
  Liviu Ungur et al                             : ANISO software                          


 Your calculation uses the libint2 library for the computation of 2-el integrals
 For citations please refer to: http://libint.valeyev.net

 Your ORCA version has been built with support for libXC version: 7.0.0
 For citations please refer to: https://libxc.gitlab.io

 This ORCA versions uses:
   CBLAS   interface :  Fast vector & matrix operations
   LAPACKE interface :  Fast linear algebra routines
   SCALAPACK package :  Parallel linear algebra routines
   Shared memory     :  Shared parallel matrices
   BLAS/LAPACK       :  OpenBLAS 0.3.29  USE64BITINT DYNAMIC_ARCH NO_AFFINITY Zen SINGLE_THREADED
        Core in use  :  Zen
   Copyright (c) 2011-2014, The OpenBLAS Project


  ***********************************
  * Starting time: Tue Mar 10 15:00:29 2026
  * Host name:     c1-16
  * Process ID:    1632176
  * Working dir.:  /tmp/lscratch/avcopan/43465685
  ***********************************

NOTE: MaxCore=6000 MB was set to SCF,MP2,MDCI,CIPSI,MRCI,RASCI and CIS
      => If you want to overwrite this, your respective input block should be placed after the MaxCore statement


***************************************
The coordinates will be read from file: guess.xyz
***************************************


Your calculation utilizes the atom-pairwise dispersion correction
based on EEQ partial charges (D4)


Warning: RI is on but no J-basis has been assigned. Assigning Def2/J (nothing to worry about!)
================================================================================

----- Orbital basis set information -----
Your calculation utilizes the basis: def2-TZVPP
   F. Weigend and R. Ahlrichs, Phys. Chem. Chem. Phys. 7, 3297 (2005).

----- AuxJ basis set information -----
Your calculation utilizes the auxiliary basis: def2/J
   H-Rn: F. Weigend, Phys. Chem. Chem. Phys. 8, 1057 (2006).
   Fr-Lr: K. Eichkorn, F. Weigend, O. Treutler, R. Ahlrichs; Theor. Chem. Acc. 97, 119 (1997).

----- AuxC basis set information -----
Your calculation utilizes the auxiliary basis: def2-TZVPP/C
  H-La, Hf-Rn : A. Hellweg, C. Hattig, S. Hofener and W. Klopper, Theor. Chem. Acc. 117, 587 (2007).
        Ce-Lu : J. Chmela and M. E. Harding, Mol. Phys. (2018).

================================================================================
                                        WARNINGS
                       Please study these warnings very carefully!
================================================================================


WARNING: your system is open-shell and RHF/RKS was chosen
  ===> : WILL SWITCH to UHF/UKS


WARNING: The frozen-core approximation for MP2-gradient calculations is turned on by default.

WARNING: The environment variable RSH_COMMAND is not set!
  ===> : All Displacements for the Numerical Hessian or Gradient calculation
         will be started on localhost

WARNING: Geometry Optimization
  ===> : Switching off AutoStart
         For restart on a previous wavefunction, please use MOREAD

WARNING: The frozen-core approximation is turned on by default for 
         the MP2 part of double-hybrid DFT.

================================================================================
                                       INPUT FILE
================================================================================
NAME = opt.inp
|  1> % MaxCore 6000
|  2> ! PAL8
|  3> ! REVDSD-PBEP86-D4/2021 def2-TZVPP def2-TZVPP/c
|  4> ! VeryTightSCF DefGrid3
|  5> ! OptTS
|  6> ! NumFreq
|  7> %geom 
|  8>    Calc_Hess true
|  9>    NumHess   true
| 10> end
| 11> * xyzfile 0 2 guess.xyz
| 12> 
| 13>                          ****END OF INPUT****
================================================================================

                       *****************************
                       * Geometry Optimization Run *
                       *****************************

Geometry optimization settings:
Update method            Update   .... Bofill
Choice of coordinates    CoordSys .... (2022) Redundant Internals
Initial Hessian          InHess   .... Almloef's Model
Max. no of cycles        MaxIter  .... 50

Convergence Tolerances:
Energy Change            TolE     ....  5.0000e-06 Eh
Max. Gradient            TolMAXG  ....  3.0000e-04 Eh/bohr
RMS Gradient             TolRMSG  ....  1.0000e-04 Eh/bohr
Max. Displacement        TolMAXD  ....  4.0000e-03 bohr
RMS Displacement         TolRMSD  ....  2.0000e-03 bohr
Strict Convergence                .... False

------------------------------------------------------------------------------
                        ORCA OPTIMIZATION COORDINATE SETUP
------------------------------------------------------------------------------

The optimization will be done in redundant internal coordinates (2022)
Making redundant internal coordinates   ...  (2022 redundants) done
Following TS mode number                ...     0
Evaluating the initial hessian          ...  (Is done on the fly) done
Evaluating the coordinates              ...  done
Calculating the B-matrix                .... done
Calculating the G-matrix                .... done
The number of degrees of freedom        ....  125

    -----------------------------------------------------------------
                    Redundant Internal Coordinates


    -----------------------------------------------------------------
         Definition                    Initial Value    d2E/dq (diagonal element)
    -----------------------------------------------------------------
      1. B(C   1,C   0)                  1.5429         0.000000   
      2. B(C   2,C   1)                  1.5446         0.000000   
      3. B(C   3,C   2)                  1.5025         0.000000   
      4. B(C   4,C   3)                  1.3475         0.000000   
      5. B(C   4,C   0)                  1.5048         0.000000   
      6. B(H   5,C   0)                  1.0960         0.000000   
      7. B(H   6,C   0)                  1.0899         0.000000   
      8. B(H   7,C   1)                  1.0902         0.000000   
      9. B(H   8,C   1)                  1.0891         0.000000   
     10. B(H   9,C   2)                  1.0918         0.000000   
     11. B(H  10,C   2)                  1.0969         0.000000   
     12. B(H  11,C   3)                  1.0830         0.000000   
     13. B(H  12,C   4)                  1.0810         0.000000   
     14. B(O  13,C   4)                  2.1478         0.000000   
     15. B(O  13,C   0)                  2.7465         0.000000   
     16. B(O  13,H   6)                  2.7072         0.000000   
     17. B(O  13,H   8)                  2.7091         0.000000   
     18. B(O  13,H  12)                  2.4995         0.000000   
     19. B(O  13,C   3)                  2.4833         0.000000   
     20. B(H  14,O  13)                  0.9669         0.000000   
     21. B(H  14,H  11)                  2.7014         0.000000   
     22. B(H  14,H  12)                  2.6377         0.000000   
     23. B(H  14,C   3)                  2.5732         0.000000   
     24. B(H  14,C   4)                  2.5011         0.000000   
     25. A(C   1,C   0,O  13)           84.9333         0.000000   
     26. A(H   5,C   0,O  13)          158.0204         0.000000   
     27. A(C   4,C   0,O  13)           51.0658         0.000000   
     28. A(C   1,C   0,H   6)          112.7892         0.000000   
     29. A(C   1,C   0,H   5)          111.8542         0.000000   
     30. A(C   4,C   0,H   6)          112.2003         0.000000   
     31. A(C   4,C   0,H   5)          109.3119         0.000000   
     32. A(C   1,C   0,C   4)          102.9229         0.000000   
     33. A(H   6,C   0,O  13)           76.4579         0.000000   
     34. A(H   5,C   0,H   6)          107.7421         0.000000   
     35. A(C   2,C   1,H   8)          108.9339         0.000000   
     36. A(C   0,C   1,H   8)          108.8237         0.000000   
     37. A(C   2,C   1,H   7)          112.5500         0.000000   
     38. A(H   7,C   1,H   8)          108.3994         0.000000   
     39. A(C   0,C   1,H   7)          112.6734         0.000000   
     40. A(C   0,C   1,C   2)          105.3442         0.000000   
     41. A(H   9,C   2,H  10)          106.9145         0.000000   
     42. A(C   3,C   2,H  10)          109.5932         0.000000   
     43. A(C   1,C   2,H  10)          111.9348         0.000000   
     44. A(C   3,C   2,H   9)          112.6086         0.000000   
     45. A(C   1,C   2,H   9)          112.6393         0.000000   
     46. A(C   1,C   2,C   3)          103.2089         0.000000   
     47. A(C   4,C   3,O  13)           59.7699         0.000000   
     48. A(C   2,C   3,O  13)          101.8859         0.000000   
     49. A(H  11,C   3,O  13)          106.8182         0.000000   
     50. A(C   4,C   3,H  11)          124.6347         0.000000   
     51. A(C   2,C   3,H  11)          123.5328         0.000000   
     52. A(C   2,C   3,C   4)          111.8119         0.000000   
     53. A(H  12,C   4,O  13)           95.7555         0.000000   
     54. A(C   3,C   4,O  13)           87.4050         0.000000   
     55. A(C   0,C   4,O  13)           95.9112         0.000000   
     56. A(C   3,C   4,H  12)          124.7985         0.000000   
     57. A(C   0,C   4,H  12)          122.9852         0.000000   
     58. A(C   0,C   4,C   3)          111.3300         0.000000   
     59. A(C   4,O  13,H  14)           99.8100         0.000000   
     60. A(C   0,O  13,C   3)           53.2860         0.000000   
     61. A(C   0,O  13,C   4)           33.0230         0.000000   
     62. A(C   0,O  13,H  14)          132.6113         0.000000   
     63. A(C   3,O  13,C   4)           32.8251         0.000000   
     64. A(C   3,O  13,H  14)           84.2609         0.000000   
     65. D(H   7,C   1,C   0,H   5)    -28.6504         0.000000   
     66. D(C   2,C   1,C   0,C   4)    -22.8168         0.000000   
     67. D(C   2,C   1,C   0,H   6)   -143.9407         0.000000   
     68. D(H   7,C   1,C   0,H   6)     92.9932         0.000000   
     69. D(C   2,C   1,C   0,H   5)     94.4157         0.000000   
     70. D(C   2,C   1,C   0,O  13)    -70.9323         0.000000   
     71. D(H   7,C   1,C   0,C   4)   -145.8829         0.000000   
     72. D(H   9,C   2,C   1,C   0)    142.4635         0.000000   
     73. D(H   9,C   2,C   1,H   7)    -94.3916         0.000000   
     74. D(C   3,C   2,C   1,H   8)    -95.8605         0.000000   
     75. D(H   9,C   2,C   1,H   8)     25.8575         0.000000   
     76. D(C   3,C   2,C   1,H   7)    143.8904         0.000000   
     77. D(C   3,C   2,C   1,C   0)     20.7455         0.000000   
     78. D(C   4,C   3,C   2,C   1)    -10.9120         0.000000   
     79. D(O  13,C   3,C   2,C   1)     51.0573         0.000000   
     80. D(H  11,C   3,C   2,H  10)    -69.9309         0.000000   
     81. D(H  11,C   3,C   2,H   9)     48.9352         0.000000   
     82. D(H  11,C   3,C   2,C   1)    170.6739         0.000000   
     83. D(C   4,C   3,C   2,H  10)    108.4832         0.000000   
     84. D(C   4,C   3,C   2,H   9)   -132.6507         0.000000   
     85. D(C   0,C   4,C   3,O  13)    -95.3349         0.000000   
     86. D(H  12,C   4,C   0,O  13)   -100.8008         0.000000   
     87. D(H  12,C   4,C   0,H   6)    -51.7072         0.000000   
     88. D(C   3,C   4,C   0,O  13)     89.5167         0.000000   
     89. D(C   3,C   4,C   0,H   6)    138.6103         0.000000   
     90. D(C   3,C   4,C   0,H   5)   -101.9331         0.000000   
     91. D(H  12,C   4,C   0,H   5)     67.7494         0.000000   
     92. D(C   0,C   4,C   3,H  11)    174.4081         0.000000   
     93. D(C   3,C   4,C   0,C   1)     17.0858         0.000000   
     94. D(C   0,C   4,C   3,C   2)     -3.9853         0.000000   
     95. D(O  13,C   4,C   3,H  11)    -90.2570         0.000000   
     96. D(O  13,C   4,C   3,C   2)     91.3496         0.000000   
     97. D(H  12,C   4,C   3,O  13)     95.2069         0.000000   
     98. D(H  12,C   4,C   3,H  11)      4.9498         0.000000   
     99. D(H  12,C   4,C   3,C   2)   -173.4435         0.000000   
    100. D(H  12,C   4,C   0,C   1)   -173.2318         0.000000   
    101. D(C   0,O  13,C   4,H  12)    124.0933         0.000000   
    102. D(C   0,O  13,C   4,C   3)   -111.1841         0.000000   
    103. D(C   3,O  13,C   4,C   0)    111.1841         0.000000   
    104. D(H  14,O  13,C   4,H  12)    -61.8039         0.000000   
    105. D(H  14,O  13,C   4,C   3)     62.9186         0.000000   
    106. D(C   0,O  13,C   3,H  11)    160.0721         0.000000   
    107. D(C   0,O  13,C   3,C   4)     39.3380         0.000000   
    108. D(C   0,O  13,C   3,C   2)    -69.1324         0.000000   
    109. D(C   4,O  13,C   3,H  11)    120.7341         0.000000   
    110. D(C   4,O  13,C   3,C   2)   -108.4704         0.000000   
    111. D(H  14,O  13,C   3,H  11)      2.5897         0.000000   
    112. D(H  14,O  13,C   3,C   4)   -118.1443         0.000000   
    113. D(H  14,O  13,C   3,C   2)    133.3853         0.000000   
    114. D(C   3,O  13,C   0,H   5)    -69.1243         0.000000   
    115. D(C   3,O  13,C   0,C   4)    -39.0887         0.000000   
    116. D(C   3,O  13,C   0,C   1)     72.0274         0.000000   
    117. D(C   4,O  13,C   0,H   6)   -133.9650         0.000000   
    118. D(H  14,O  13,C   4,C   0)    174.1028         0.000000   
    119. D(C   4,O  13,C   0,H   5)    -30.0356         0.000000   
    120. D(C   4,O  13,C   0,C   1)    111.1161         0.000000   
    121. D(H  14,O  13,C   0,H   6)   -141.8719         0.000000   
    122. D(C   3,O  13,C   4,H  12)   -124.7226         0.000000   
    123. D(H  14,O  13,C   0,H   5)    -37.9425         0.000000   
    124. D(H  14,O  13,C   0,C   4)     -7.9069         0.000000   
    125. D(H  14,O  13,C   0,C   1)    103.2092         0.000000   
    -----------------------------------------------------------------

Number of atoms                         .... 15
Number of degrees of freedom            .... 125


         *************************************************************
         *                GEOMETRY OPTIMIZATION CYCLE   1            *
         *************************************************************
---------------------------------
CARTESIAN COORDINATES (ANGSTROEM)
---------------------------------
  C      1.910696    1.410401   -0.031461
  C      0.699204    2.301734    0.312396
  C     -0.543951    1.438314    0.004495
  C     -0.003502    0.036638    0.030755
  C      1.343501    0.019940    0.064514
  H      2.269626    1.585785   -1.052028
  H      2.750884    1.560123    0.646422
  H      0.700792    3.243296   -0.237103
  H      0.718852    2.525596    1.378027
  H     -1.350390    1.590793    0.724583
  H     -0.957399    1.654596   -0.988235
  H     -0.629409   -0.846618   -0.001803
  H      1.951569   -0.870382   -0.013591
  O      1.192161   -0.009838    2.206779
  H      0.737701   -0.854639    2.328103

----------------------------
CARTESIAN COORDINATES (A.U.)
----------------------------
  NO LB      ZA    FRAG     MASS         X           Y           Z
   0 C     6.0000    0    12.011    3.610693    2.665271   -0.059452
   1 C     6.0000    0    12.011    1.321304    4.349646    0.590343
   2 C     6.0000    0    12.011   -1.027918    2.718019    0.008494
   3 C     6.0000    0    12.011   -0.006617    0.069235    0.058119
   4 C     6.0000    0    12.011    2.538848    0.037681    0.121914
   5 H     1.0000    0     1.008    4.288971    2.996700   -1.988045
   6 H     1.0000    0     1.008    5.198417    2.948205    1.221561
   7 H     1.0000    0     1.008    1.324306    6.128941   -0.448059
   8 H     1.0000    0     1.008    1.358434    4.772685    2.604094
   9 H     1.0000    0     1.008   -2.551867    3.006164    1.369263
  10 H     1.0000    0     1.008   -1.809222    3.126733   -1.867493
  11 H     1.0000    0     1.008   -1.189411   -1.599876   -0.003407
  12 H     1.0000    0     1.008    3.687932   -1.644783   -0.025683
  13 O     8.0000    0    15.999    2.252857   -0.018592    4.170208
  14 H     1.0000    0     1.008    1.394053   -1.615033    4.399477

--------------------------------
INTERNAL COORDINATES (ANGSTROEM)
--------------------------------
 C      0   0   0     0.000000000000     0.00000000     0.00000000
 C      1   0   0     1.542862544753     0.00000000     0.00000000
 C      2   1   0     1.544581064494   105.34422419     0.00000000
 C      3   2   1     1.502487960206   103.20889386    20.74549933
 C      4   3   2     1.347528650725   111.81185717   349.08800851
 H      1   2   3     1.095969035990   111.85424011    94.41570646
 H      1   2   3     1.089888418639   112.78918688   216.05933163
 H      2   1   3     1.090179331219   112.67342668   236.93391713
 H      2   1   3     1.089068731199   108.82374092   116.68111041
 H      3   2   1     1.091842579339   112.63931429   142.46348544
 H      3   2   1     1.096918525226   111.93480423   262.98010681
 H      4   3   2     1.083033200696   123.53277929   170.67386578
 H      5   4   3     1.080981294887   124.79845894   186.55646696
 O      5   4   3     2.147810672805    87.40501986    91.34959172
 H     14   5   4     0.966923010014    99.80997447    62.91864828

---------------------------
INTERNAL COORDINATES (A.U.)
---------------------------
 C      0   0   0     0.000000000000     0.00000000     0.00000000
 C      1   0   0     2.915587671868     0.00000000     0.00000000
 C      2   1   0     2.918835203533   105.34422419     0.00000000
 C      3   2   1     2.839290764303   103.20889386    20.74549933
 C      4   3   2     2.546460107482   111.81185717   349.08800851
 H      1   2   3     2.071081329280   111.85424011    94.41570646
 H      1   2   3     2.059590627760   112.78918688   216.05933163
 H      2   1   3     2.060140372866   112.67342668   236.93391713
 H      2   1   3     2.058041642984   108.82374092   116.68111041
 H      3   2   1     2.063283456304   112.63931429   142.46348544
 H      3   2   1     2.072875603902   111.93480423   262.98010681
 H      4   3   2     2.046636143260   123.53277929   170.67386578
 H      5   4   3     2.042758603228   124.79845894   186.55646696
 O      5   4   3     4.058773959114    87.40501986    91.34959172
 H     14   5   4     1.827219681513    99.80997447    62.91864828

---------------------
BASIS SET INFORMATION
---------------------
There are 3 groups of distinct atoms

 Group   1 Type C   : 11s6p2d1f contracted to 5s3p2d1f pattern {62111/411/11/1}
 Group   2 Type H   : 5s2p1d contracted to 3s2p1d pattern {311/11/1}
 Group   3 Type O   : 11s6p2d1f contracted to 5s3p2d1f pattern {62111/411/11/1}

Atom   0C    basis set group =>   1
Atom   1C    basis set group =>   1
Atom   2C    basis set group =>   1
Atom   3C    basis set group =>   1
Atom   4C    basis set group =>   1
Atom   5H    basis set group =>   2
Atom   6H    basis set group =>   2
Atom   7H    basis set group =>   2
Atom   8H    basis set group =>   2
Atom   9H    basis set group =>   2
Atom  10H    basis set group =>   2
Atom  11H    basis set group =>   2
Atom  12H    basis set group =>   2
Atom  13O    basis set group =>   3
Atom  14H    basis set group =>   2
---------------------------------
AUXILIARY/J BASIS SET INFORMATION
---------------------------------
There are 3 groups of distinct atoms

 Group   1 Type C   : 12s5p4d2f1g contracted to 6s4p3d1f1g pattern {711111/2111/211/2/1}
 Group   2 Type H   : 5s2p1d contracted to 3s1p1d pattern {311/2/1}
 Group   3 Type O   : 12s5p4d2f1g contracted to 6s4p3d1f1g pattern {711111/2111/211/2/1}

Atom   0C    basis set group =>   1
Atom   1C    basis set group =>   1
Atom   2C    basis set group =>   1
Atom   3C    basis set group =>   1
Atom   4C    basis set group =>   1
Atom   5H    basis set group =>   2
Atom   6H    basis set group =>   2
Atom   7H    basis set group =>   2
Atom   8H    basis set group =>   2
Atom   9H    basis set group =>   2
Atom  10H    basis set group =>   2
Atom  11H    basis set group =>   2
Atom  12H    basis set group =>   2
Atom  13O    basis set group =>   3
Atom  14H    basis set group =>   2
---------------------------------
AUXILIARY/C BASIS SET INFORMATION
---------------------------------
There are 3 groups of distinct atoms

 Group   1 Type C   : 8s6p5d3f1g contracted to 8s6p4d3f1g pattern {11111111/111111/2111/111/1}
 Group   2 Type H   : 4s3p2d1f contracted to 4s3p2d1f pattern {1111/111/11/1}
 Group   3 Type O   : 8s6p5d3f1g contracted to 8s6p4d3f1g pattern {11111111/111111/2111/111/1}

Atom   0C    basis set group =>   1
Atom   1C    basis set group =>   1
Atom   2C    basis set group =>   1
Atom   3C    basis set group =>   1
Atom   4C    basis set group =>   1
Atom   5H    basis set group =>   2
Atom   6H    basis set group =>   2
Atom   7H    basis set group =>   2
Atom   8H    basis set group =>   2
Atom   9H    basis set group =>   2
Atom  10H    basis set group =>   2
Atom  11H    basis set group =>   2
Atom  12H    basis set group =>   2
Atom  13O    basis set group =>   3
Atom  14H    basis set group =>   2


           ************************************************************
           *        Program running with 8 parallel MPI-processes     *
           *              working on a common directory               *
           ************************************************************
------------------------------------------------------------------------------
                             ORCA STARTUP CALCULATIONS
                           -- RI-GTO INTEGRALS CHOSEN --
------------------------------------------------------------------------------
------------------------------------------------------------------------------
                   ___                                                        
                  /   \      - P O W E R E D   B Y -                         
                 /     \                                                     
                 |  |  |   _    _      __       _____    __    __             
                 |  |  |  | |  | |    /  \     |  _  \  |  |  /  |          
                  \  \/   | |  | |   /    \    | | | |  |  | /  /          
                 / \  \   | |__| |  /  /\  \   | |_| |  |  |/  /          
                |  |  |   |  __  | /  /__\  \  |    /   |      \           
                |  |  |   | |  | | |   __   |  |    \   |  |\   \          
                \     /   | |  | | |  |  |  |  | |\  \  |  | \   \       
                 \___/    |_|  |_| |__|  |__|  |_| \__\ |__|  \__/        
                                                                              
                      - O R C A' S   B I G   F R I E N D -                    
                                      &                                       
                       - I N T E G R A L  F E E D E R -                       
                                                                              
 v1 FN, 2020, v2 2021, v3 2022-2024                                           
------------------------------------------------------------------------------


----------------------
SHARK INTEGRAL PACKAGE
----------------------

Number of atoms                             ...     15
Number of basis functions                   ...    312
Number of shells                            ...    120
Maximum angular momentum                    ...      3
Integral batch strategy                     ... SHARK/LIBINT Hybrid
RI-J (if used) integral strategy            ... SPLIT-RIJ (Revised 2003 algorithm where possible)
Printlevel                                  ...      1
Contraction scheme used                     ... SEGMENTED contraction
Prescreening option                         ... SCHWARTZ
   Thresh                                   ... 1.000e-12
   Tcut                                     ... 1.000e-14
   Tpresel                                  ... 1.000e-14 
Coulomb Range Separation                    ... NOT USED
Exchange Range Separation                   ... NOT USED
Multipole approximations                    ... NOT USED
Finite Nucleus Model                        ... NOT USED
CABS basis                                  ... NOT available
Auxiliary Coulomb fitting basis             ... AVAILABLE
   # of basis functions in Aux-J            ...    393
   # of shells in Aux-J                     ...    135
   Maximum angular momentum in Aux-J        ...      4
Auxiliary J/K fitting basis                 ... NOT available
Auxiliary Correlation fitting basis         ... AVAILABLE
   # of basis functions in Aux-C            ...    726
   # of shells in Aux-C                     ...    222
   Maximum angular momentum in Aux-C        ...      4
Auxiliary 'external' fitting basis          ... NOT available

Checking pre-screening integrals            ... done (  0.0 sec) Dimension = 120
   => SHARK Basis and OBASIS are compatible. Storing Pre-screening
Shell pair information
Shell pair cut-off parameter TPreSel        ...   1.0e-14
Total number of shell pairs                 ...      7260
Shell pairs after pre-screening             ...      7007
Total number of primitive shell pairs       ...     18687
Primitive shell pairs kept                  ...     14825
          la=0 lb=0:   1560 shell pairs
          la=1 lb=0:   1975 shell pairs
          la=1 lb=1:    649 shell pairs
          la=2 lb=0:   1156 shell pairs
          la=2 lb=1:    740 shell pairs
          la=2 lb=2:    228 shell pairs
          la=3 lb=0:    338 shell pairs
          la=3 lb=1:    214 shell pairs
          la=3 lb=2:    126 shell pairs
          la=3 lb=3:     21 shell pairs

Checking whether 4 symmetric matrices of dimension 312 fit in memory
:Max Core in MB      =   6000.00
 MB in use           =     12.11
 MB left             =   5987.89
 MB needed           =      1.49
 Data fit in memory  = YES
Calculating RI/J V-Matrix + Cholesky decomp.... done (  0.0 sec)
Calculating RI/C V-Matrix + Cholesky decomp.... done (  0.1 sec)
Calculating Nuclear repulsion               ... done (  0.0 sec) ENN=    240.732978941983 Eh

Diagonalization of the overlap matrix:
Smallest eigenvalue                        ... 6.299e-05
Time for diagonalization                   ...    0.029 sec
Threshold for overlap eigenvalues          ... 1.000e-07
Number of eigenvalues below threshold      ... 0
Time for construction of square roots      ...    0.012 sec
Total time needed                          ...    0.044 sec

-------------------
DFT GRID GENERATION
-------------------

General Integration Accuracy     IntAcc      ... 4.959
Radial Grid Type                 RadialGrid  ... OptM3 with GC (2021)
Angular Grid (max. ang.)         AngularGrid ... 6 (Lebedev-590)
Angular grid pruning method      GridPruning ... 4 (adaptive)
Weight generation scheme         WeightScheme... mBecke (2022)
Basis function cutoff            BFCut       ... 1.0000e-12
Integration weight cutoff        WCut        ... 1.0000e-14
Partially contracted basis set               ... off
Rotationally invariant grid construction     ... off
Angular grids for H and He will be reduced by one unit

Total number of grid points                  ...   164077
Total number of batches                      ...     2570
Average number of points per batch           ...       63
Average number of grid points per atom       ...    10938

--------------------
COSX GRID GENERATION
--------------------

GRIDX 1
-------
General Integration Accuracy     IntAcc      ... 4.020
Radial Grid Type                 RadialGrid  ... OptM3 with GC (2021)
Angular Grid (max. ang.)         AngularGrid ... 2 (Lebedev-110)
Angular grid pruning method      GridPruning ... 4 (adaptive)
Weight generation scheme         WeightScheme... mBecke (2022)
Basis function cutoff            BFCut       ... 1.0000e-12
Integration weight cutoff        WCut        ... 1.0000e-14
Partially contracted basis set               ... on
Rotationally invariant grid construction     ... off
Angular grids for H and He will be reduced by one unit

Total number of grid points                  ...    17672
Total number of batches                      ...      148
Average number of points per batch           ...      119
Average number of grid points per atom       ...     1178
UseSFitting                                  ... on

GRIDX 2
-------
General Integration Accuracy     IntAcc      ... 4.338
Radial Grid Type                 RadialGrid  ... OptM3 with GC (2021)
Angular Grid (max. ang.)         AngularGrid ... 3 (Lebedev-194)
Angular grid pruning method      GridPruning ... 4 (adaptive)
Weight generation scheme         WeightScheme... mBecke (2022)
Basis function cutoff            BFCut       ... 1.0000e-12
Integration weight cutoff        WCut        ... 1.0000e-14
Partially contracted basis set               ... on
Rotationally invariant grid construction     ... off
Angular grids for H and He will be reduced by one unit

Total number of grid points                  ...    38629
Total number of batches                      ...      309
Average number of points per batch           ...      125
Average number of grid points per atom       ...     2575
UseSFitting                                  ... on

GRIDX 3
-------
General Integration Accuracy     IntAcc      ... 4.871
Radial Grid Type                 RadialGrid  ... OptM3 with GC (2021)
Angular Grid (max. ang.)         AngularGrid ... 4 (Lebedev-302)
Angular grid pruning method      GridPruning ... 4 (adaptive)
Weight generation scheme         WeightScheme... mBecke (2022)
Basis function cutoff            BFCut       ... 1.0000e-12
Integration weight cutoff        WCut        ... 1.0000e-14
Partially contracted basis set               ... on
Rotationally invariant grid construction     ... off
Angular grids for H and He will be reduced by one unit

Total number of grid points                  ...    75645
Total number of batches                      ...      599
Average number of points per batch           ...      126
Average number of grid points per atom       ...     5043
UseSFitting                                  ... on
Grids setup in   4.8 sec
Initializing property integral containers    ... done (  0.0 sec)

SHARK setup successfully completed in   5.3 seconds

Maximum memory used throughout the entire STARTUP-calculation: 42.4 MB


           ************************************************************
           *        Program running with 8 parallel MPI-processes     *
           *              working on a common directory               *
           ************************************************************
-------------------------------------------------------------------------------
                                 ORCA GUESS
                   Start orbitals & Density for SCF / CASSCF
-------------------------------------------------------------------------------

------------
SCF SETTINGS
------------
Hamiltonian:
 Density Functional     Method          .... DFT(GTOs)
 Exchange Functional    Exchange        .... PBE
   PBE kappa parameter   XKappa         ....  0.804000
   PBE mue parameter    XMuePBE         ....  0.219520
 Correlation Functional Correlation     .... P86
 LDA part of GGA corr.  LDAOpt          .... VWN-5
 Gradients option       PostSCFGGA      .... off
 Hybrid DFT is turned on
   Fraction HF Exchange ScalHFX         ....  0.690000
   Scaling of DF-GGA-X  ScalDFX         ....  0.310000
   Scaling of DF-GGA-C  ScalDFC         ....  0.422400
   Scaling of DF-LDA-C  ScalLDAC        ....  0.422400
   Perturbative correction              ....  1.000000
 RI-approximation to the Coulomb term is turned on
   Number of AuxJ basis functions       .... 393
   RIJ-COSX (HFX calculated with COS-X)).... on


General Settings:
 Integral files         IntName         .... opt
 Hartree-Fock type      HFTyp           .... UHF
 Total Charge           Charge          ....    0
 Multiplicity           Mult            ....    2
 Number of Electrons    NEL             ....   47
 Basis Dimension        Dim             ....  312
 Nuclear Repulsion      ENuc            ....    240.7329789420 Eh

Convergence Acceleration:
 AO-DIIS                CNVDIIS         .... on
   Start iteration      DIISMaxIt       ....    12
   Startup error        DIISStart       ....  0.200000
   # of expansion vecs  DIISMaxEq       ....     5
   Bias factor          DIISBfac        ....   1.050
   Max. coefficient     DIISMaxC        ....  10.000
 MO-DIIS                CNVKDIIS        .... off
 Trust-Rad. Augm. Hess. CNVTRAH         .... auto
   Auto Start mean grad. ratio tolernc. ....  1.125000
   Auto Start start iteration           ....    50
   Auto Start num. interpolation iter.  ....    10
   Max. Number of Micro iterations      ....    24
   Max. Number of Macro iterations      .... Maxiter - #DIIS iter
   Number of Davidson start vectors     ....     2
   Converg. threshold    (grad. norm)   ....   2.000e-06
   Grad. Scal. Fac. for Micro threshold ....   0.100
   Minimum threshold for Micro iter.    ....   1.000e-02
   NR start threshold (gradient norm)   ....   1.000e-04
   Initial trust radius                 ....   0.400
   Minimum AH scaling param. (alpha)    ....   1.000
   Maximum AH scaling param. (alpha)    .... 1000.000
   Quad. conv. algorithm                .... NR
   White noise on init. David. guess    .... on
   Maximum white noise                  ....   0.010
   Pseudo random numbers                .... off
   Inactive MOs                         .... canonical
   Orbital update algorithm             .... Taylor
   Preconditioner                       .... Diag
   Full preconditioner red. dimension   ....   250
 SOSCF                 CNVSOSCF           .... on
   Start iteration     SOSCFMaxIt         ....   150
   Startup grad/error  SOSCFStart         ....  0.003300
   Hessian update      SOSCFHessUp        .... L-BFGS
   Autom. constraints  SOSCFAutoConstrain .... off
 Level Shifting         CNVShift        .... on
   Level shift para.    LevelShift      ....    0.2500
   Turn off err/grad.   ShiftErr        ....    0.0010
 Zerner damping         CNVZerner       .... off
 Static damping         CNVDamp         .... on
   Fraction old density DampFac         ....    0.7000
   Max. Damping (<1)    DampMax         ....    0.9800
   Min. Damping (>=0)   DampMin         ....    0.0000
   Turn off err/grad.   DampErr         ....    0.1000

SCF Procedure:
 Maximum # iterations   MaxIter         ....   125
 SCF integral mode      SCFMode         .... Direct
   Integral package                     .... SHARK and LIBINT hybrid scheme
 Reset frequency        DirectResetFreq ....    20
 Integral Threshold     Thresh          ....  1.000e-12 Eh
 Primitive CutOff       TCut            ....  1.000e-14 Eh

Convergence Tolerance:
 Convergence Check Mode ConvCheckMode   .... Total+1el-Energy
 Convergence forced     ConvForced      .... 0
 Energy Change          TolE            ....  1.000e-09 Eh
 1-El. energy change                    ....  1.000e-06 Eh
 Orbital Gradient       TolG            ....  2.000e-06
 Orbital Rotation angle TolX            ....  2.000e-06
 DIIS Error             TolErr          ....  1.000e-08

------------------------------
INITIAL GUESS: MODEL POTENTIAL
------------------------------
Loading Hartree-Fock densities                     ... done
Calculating cut-offs                               ... done
Initializing the effective Hamiltonian             ... done
Setting up the integral package (SHARK)            ... done
Starting the Coulomb interaction                   ... done (   0.1 sec)
Making the grid                                    ... done (   0.2 sec)
Mapping shells                                     ... done
Starting the XC term evaluation                    ... done (   0.1 sec)
  promolecular density results
     # of electrons  =     46.991861142
     EX              =    -36.313830444
     EC              =      0.017041399
     EX+EC           =    -36.296789045
Transforming the Hamiltonian                       ... done (   0.0 sec)
Diagonalizing the Hamiltonian                      ... done (   0.0 sec)
Back transforming the eigenvectors                 ... done (   0.0 sec)
Now organizing SCF variables                       ... done
                      ------------------
                      INITIAL GUESS DONE (   0.5 sec)
                      ------------------
             **** ENERGY FILE WAS UPDATED (opt.en.tmp) ****
Finished Guess after   2.7 sec
Maximum memory used throughout the entire GUESS-calculation: 18.1 MB


           ************************************************************
           *        Program running with 8 parallel MPI-processes     *
           *              working on a common directory               *
           ************************************************************

-------------------------------------------------------------------------------------------
                                      ORCA LEAN-SCF
                              memory conserving SCF solver
-------------------------------------------------------------------------------------------

----------------------------------------D-I-I-S--------------------------------------------
Iteration    Energy (Eh)           Delta-E    RMSDP     MaxDP     DIISErr   Damp  Time(sec)
-------------------------------------------------------------------------------------------
               ***  Starting incremental Fock matrix formation  ***
    1    -269.8529315366580477     0.00e+00  2.05e-03  2.42e-02  1.60e-01  0.700   8.3
    2    -269.9477100609549893    -9.48e-02  1.52e-03  1.86e-02  8.32e-02  0.700   5.1
                               ***Turning on AO-DIIS***
    3    -269.9943504071464986    -4.66e-02  6.57e-04  9.86e-03  4.45e-02  0.700   5.2
    4    -270.0234518979504514    -2.91e-02  1.72e-03  2.86e-02  3.59e-02  0.000   4.8
    5    -270.0931912471366445    -6.97e-02  5.06e-04  9.55e-03  2.07e-02  0.000   5.2
    6    -270.0962199653791345    -3.03e-03  5.42e-04  1.00e-02  1.41e-02  0.000   4.8
    7    -270.0987008428637068    -2.48e-03  5.17e-04  9.36e-03  1.30e-02  0.000   4.4
    8    -270.1006957013418059    -1.99e-03  5.12e-04  9.02e-03  8.84e-03  0.000   4.6
    9    -270.1018651256324006    -1.17e-03  2.59e-04  3.82e-03  6.22e-03  0.000   4.3
   10    -270.1022719678579733    -4.07e-04  2.18e-04  3.28e-03  3.37e-03  0.000   4.2
                              *** Initializing SOSCF ***
---------------------------------------S-O-S-C-F--------------------------------------
Iteration    Energy (Eh)           Delta-E    RMSDP     MaxDP     MaxGrad    Time(sec)
--------------------------------------------------------------------------------------
   11    -270.1024373161924359    -1.65e-04  9.33e-05  1.22e-03  1.92e-03     4.7
               *** Restarting incremental Fock matrix formation ***
   12    -270.1024816591705076    -4.43e-05  4.92e-05  8.30e-04  1.27e-03     8.7
   13    -270.1024909495295674    -9.29e-06  5.96e-05  8.52e-04  4.29e-04     7.4
   14    -270.1024969321369440    -5.98e-06  2.93e-05  4.61e-04  2.40e-04     7.4
   15    -270.1024987245144757    -1.79e-06  2.72e-05  3.46e-04  2.09e-04     6.9
   16    -270.1024999500858712    -1.23e-06  1.15e-05  2.63e-04  1.75e-04     7.0
   17    -270.1025005293253685    -5.79e-07  2.07e-05  4.75e-04  1.38e-04     7.0
   18    -270.1025011950968633    -6.66e-07  1.25e-05  2.18e-04  6.42e-05     7.0
   19    -270.1025014124033987    -2.17e-07  4.78e-06  7.58e-05  3.87e-05     7.0
   20    -270.1025014742971280    -6.19e-08  1.79e-06  2.55e-05  1.94e-05     6.7
   21    -270.1025014857932547    -1.15e-08  1.11e-06  1.50e-05  7.80e-06     4.9
   22    -270.1025014883646236    -2.57e-09  4.47e-07  7.45e-06  3.58e-06     3.9
   23    -270.1025014888743385    -5.10e-10  2.57e-07  4.81e-06  3.27e-06     3.5
                 **** Energy Check signals convergence ****

               *****************************************************
               *                     SUCCESS                       *
               *           SCF CONVERGED AFTER  23 CYCLES          *
               *****************************************************

Recomputing exchange energy using gridx3       ... done (    8.010 sec)
Old exchange energy                            :    -25.791290848 Eh
New exchange energy                            :    -25.791290209 Eh
Exchange energy change after final integration :      0.000000639 Eh
Total energy after final integration           :   -270.102500850 Eh
             **** ENERGY FILE WAS UPDATED (opt.en.tmp) ****

----------------
TOTAL SCF ENERGY
----------------

Total Energy       :       -270.10250085007988 Eh           -7349.86271 eV

Components:
Nuclear Repulsion  :        240.73297894198333 Eh            6550.67739 eV
Electronic Energy  :       -510.83548043089019 Eh          -13900.54011 eV
One Electron Energy:       -843.37188209412056 Eh          -22949.31563 eV
Two Electron Energy:        332.53640166323038 Eh            9048.77552 eV

Virial components:
Potential Energy   :       -539.57657781912803 Eh          -14682.62513 eV
Kinetic Energy     :        269.47407696904810 Eh            7332.76242 eV
Virial Ratio       :          2.00233203834707

DFT components:
N(Alpha)           :       24.000002489571 electrons
N(Beta)            :       23.000001987332 electrons
N(Total)           :       47.000004476902 electrons
E(X)               :      -11.528985516683 Eh       
E(C)               :       -0.712449893385 Eh       
E(XC)              :      -12.241435410068 Eh       

---------------
SCF CONVERGENCE
---------------

  Last Energy change         ...    5.0971e-10  Tolerance :   1.0000e-09
  Last MAX-Density change    ...    4.8124e-06  Tolerance :   1.0000e-08
  Last RMS-Density change    ...    2.5721e-07  Tolerance :   1.0000e-09
  Last DIIS Error            ...    1.9223e-03  Tolerance :   1.0000e-08
  Last Orbital Gradient      ...    3.2738e-06  Tolerance :   2.0000e-06
  Last Orbital Rotation      ...    2.1538e-05  Tolerance :   2.0000e-06


----------------------
UHF SPIN CONTAMINATION
----------------------

Warning: in a DFT calculation there is little theoretical justification to 
         calculate <S**2> as in Hartree-Fock theory. We will do it anyways
         but you should keep in mind that the values have only limited relevance

Expectation value of <S**2>     :     0.822271
Ideal value S*(S+1) for S=0.5   :     0.750000
Deviation                       :     0.072271

----------------
ORBITAL ENERGIES
----------------
                 SPIN UP ORBITALS
  NO   OCC          E(Eh)            E(eV) 
   0   1.0000     -20.024280      -544.8884 
   1   1.0000     -10.826599      -294.6067 
   2   1.0000     -10.818203      -294.3783 
   3   1.0000     -10.808283      -294.1083 
   4   1.0000     -10.807197      -294.0788 
   5   1.0000     -10.801838      -293.9330 
   6   1.0000      -1.202281       -32.7157 
   7   1.0000      -1.028087       -27.9757 
   8   1.0000      -0.874358       -23.7925 
   9   1.0000      -0.865439       -23.5498 
  10   1.0000      -0.708097       -19.2683 
  11   1.0000      -0.660792       -17.9811 
  12   1.0000      -0.615585       -16.7509 
  13   1.0000      -0.590406       -16.0658 
  14   1.0000      -0.552945       -15.0464 
  15   1.0000      -0.519910       -14.1475 
  16   1.0000      -0.495465       -13.4823 
  17   1.0000      -0.478360       -13.0168 
  18   1.0000      -0.443927       -12.0799 
  19   1.0000      -0.437344       -11.9007 
  20   1.0000      -0.433554       -11.7976 
  21   1.0000      -0.424631       -11.5548 
  22   1.0000      -0.422215       -11.4891 
  23   1.0000      -0.297230        -8.0880 
  24   0.0000       0.095301         2.5933 
  25   0.0000       0.108513         2.9528 
  26   0.0000       0.124871         3.3979 
  27   0.0000       0.141710         3.8561 
  28   0.0000       0.145593         3.9618 
  29   0.0000       0.161982         4.4078 
  30   0.0000       0.168042         4.5727 
  31   0.0000       0.169831         4.6213 
  32   0.0000       0.193183         5.2568 
  33   0.0000       0.207458         5.6452 
  34   0.0000       0.246444         6.7061 

                 SPIN DOWN ORBITALS
  NO   OCC          E(Eh)            E(eV) 
   0   1.0000     -19.993098      -544.0399 
   1   1.0000     -10.830377      -294.7095 
   2   1.0000     -10.809310      -294.1363 
   3   1.0000     -10.808686      -294.1193 
   4   1.0000     -10.806758      -294.0668 
   5   1.0000     -10.801815      -293.9323 
   6   1.0000      -1.103475       -30.0271 
   7   1.0000      -1.019456       -27.7408 
   8   1.0000      -0.869587       -23.6627 
   9   1.0000      -0.861572       -23.4446 
  10   1.0000      -0.706183       -19.2162 
  11   1.0000      -0.655716       -17.8429 
  12   1.0000      -0.613127       -16.6840 
  13   1.0000      -0.579544       -15.7702 
  14   1.0000      -0.528189       -14.3728 
  15   1.0000      -0.491933       -13.3862 
  16   1.0000      -0.477683       -12.9984 
  17   1.0000      -0.442100       -12.0301 
  18   1.0000      -0.435940       -11.8625 
  19   1.0000      -0.430674       -11.7192 
  20   1.0000      -0.424482       -11.5507 
  21   1.0000      -0.395868       -10.7721 
  22   1.0000      -0.318475        -8.6661 
  23   0.0000       0.028322         0.7707 
  24   0.0000       0.098536         2.6813 
  25   0.0000       0.123407         3.3581 
  26   0.0000       0.128120         3.4863 
  27   0.0000       0.141980         3.8635 
  28   0.0000       0.146870         3.9965 
  29   0.0000       0.162725         4.4280 
  30   0.0000       0.168280         4.5791 
  31   0.0000       0.173604         4.7240 
  32   0.0000       0.193678         5.2703 
  33   0.0000       0.209739         5.7073 
*Only the first 10 virtual orbitals were printed.

                    ********************************
                    * MULLIKEN POPULATION ANALYSIS *
                    ********************************

--------------------------------------------
MULLIKEN ATOMIC CHARGES AND SPIN POPULATIONS
--------------------------------------------
   0 C :   -0.118365    0.028100
   1 C :   -0.126549   -0.000380
   2 C :   -0.085336   -0.052361
   3 C :   -0.207370    0.491234
   4 C :   -0.053183   -0.261563
   5 H :    0.071041   -0.013325
   6 H :    0.082011   -0.005267
   7 H :    0.075723   -0.000525
   8 H :    0.085788   -0.000035
   9 H :    0.069591    0.015247
  10 H :    0.071370    0.024028
  11 H :    0.116789   -0.035248
  12 H :    0.136200    0.019544
  13 O :   -0.333815    0.815961
  14 H :    0.216107   -0.025409
Sum of atomic charges         :   -0.0000000
Sum of atomic spin populations:    1.0000000

-----------------------------------------------------
MULLIKEN REDUCED ORBITAL CHARGES AND SPIN POPULATIONS
-----------------------------------------------------
CHARGE
  0 C s       :     3.114164  s :     3.114164
      pz      :     1.029334  p :     2.890095
      px      :     0.987386
      py      :     0.873375
      dz2     :     0.019764  d :     0.108065
      dxz     :     0.027627
      dyz     :     0.014372
      dx2y2   :     0.024816
      dxy     :     0.021486
      f0      :     0.000754  f :     0.006042
      f+1     :     0.000737
      f-1     :     0.000552
      f+2     :     0.000440
      f-2     :     0.000775
      f+3     :     0.001452
      f-3     :     0.001331

  1 C s       :     3.117935  s :     3.117935
      pz      :     1.056988  p :     2.899093
      px      :     0.873023
      py      :     0.969082
      dz2     :     0.023196  d :     0.103439
      dxz     :     0.015186
      dyz     :     0.019014
      dx2y2   :     0.026359
      dxy     :     0.019683
      f0      :     0.000922  f :     0.006082
      f+1     :     0.000564
      f-1     :     0.000473
      f+2     :     0.000565
      f-2     :     0.000791
      f+3     :     0.001361
      f-3     :     0.001407

  2 C s       :     3.094117  s :     3.094117
      pz      :     1.020196  p :     2.873046
      px      :     0.974779
      py      :     0.878072
      dz2     :     0.017505  d :     0.111997
      dxz     :     0.031000
      dyz     :     0.016953
      dx2y2   :     0.025327
      dxy     :     0.021212
      f0      :     0.000739  f :     0.006176
      f+1     :     0.000821
      f-1     :     0.000543
      f+2     :     0.000500
      f-2     :     0.000802
      f+3     :     0.001447
      f-3     :     0.001323

  3 C s       :     3.208993  s :     3.208993
      pz      :     0.951261  p :     2.882328
      px      :     0.953402
      py      :     0.977664
      dz2     :     0.007161  d :     0.108307
      dxz     :     0.019696
      dyz     :     0.008783
      dx2y2   :     0.030441
      dxy     :     0.042226
      f0      :     0.001091  f :     0.007743
      f+1     :     0.000693
      f-1     :     0.000866
      f+2     :     0.000948
      f-2     :     0.000280
      f+3     :     0.001510
      f-3     :     0.002355

  4 C s       :     3.113800  s :     3.113800
      pz      :     0.853603  p :     2.802002
      px      :     0.965416
      py      :     0.982983
      dz2     :     0.016561  d :     0.129100
      dxz     :     0.026267
      dyz     :     0.010307
      dx2y2   :     0.032203
      dxy     :     0.043762
      f0      :     0.001438  f :     0.008281
      f+1     :     0.000658
      f-1     :     0.000901
      f+2     :     0.001074
      f-2     :     0.000314
      f+3     :     0.001522
      f-3     :     0.002374

  5 H s       :     0.888151  s :     0.888151
      pz      :     0.018983  p :     0.038734
      px      :     0.011022
      py      :     0.008729
      dz2     :     0.000584  d :     0.002075
      dxz     :     0.000657
      dyz     :     0.000603
      dx2y2   :     0.000106
      dxy     :     0.000125

  6 H s       :     0.876412  s :     0.876412
      pz      :     0.013353  p :     0.039474
      px      :     0.017164
      py      :     0.008956
      dz2     :     0.000558  d :     0.002104
      dxz     :     0.000421
      dyz     :     0.000268
      dx2y2   :     0.000355
      dxy     :     0.000502

  7 H s       :     0.882817  s :     0.882817
      pz      :     0.011708  p :     0.039385
      px      :     0.009430
      py      :     0.018247
      dz2     :     0.000467  d :     0.002075
      dxz     :     0.000154
      dyz     :     0.000450
      dx2y2   :     0.000334
      dxy     :     0.000670

  8 H s       :     0.873130  s :     0.873130
      pz      :     0.020340  p :     0.038967
      px      :     0.008668
      py      :     0.009959
      dz2     :     0.000545  d :     0.002115
      dxz     :     0.000728
      dyz     :     0.000747
      dx2y2   :     0.000033
      dxy     :     0.000062

  9 H s       :     0.888338  s :     0.888338
      pz      :     0.013500  p :     0.039963
      px      :     0.017156
      py      :     0.009307
      dz2     :     0.000585  d :     0.002108
      dxz     :     0.000410
      dyz     :     0.000298
      dx2y2   :     0.000341
      dxy     :     0.000474

 10 H s       :     0.887764  s :     0.887764
      pz      :     0.018341  p :     0.038795
      px      :     0.011511
      py      :     0.008943
      dz2     :     0.000601  d :     0.002071
      dxz     :     0.000606
      dyz     :     0.000569
      dx2y2   :     0.000139
      dxy     :     0.000156

 11 H s       :     0.845080  s :     0.845080
      pz      :     0.010520  p :     0.036203
      px      :     0.010415
      py      :     0.015267
      dz2     :     0.000125  d :     0.001929
      dxz     :     0.000271
      dyz     :     0.000333
      dx2y2   :     0.000776
      dxy     :     0.000424

 12 H s       :     0.826920  s :     0.826920
      pz      :     0.008489  p :     0.035033
      px      :     0.010908
      py      :     0.015635
      dz2     :     0.000134  d :     0.001848
      dxz     :     0.000216
      dyz     :     0.000281
      dx2y2   :     0.000790
      dxy     :     0.000427

 13 O s       :     3.877814  s :     3.877814
      pz      :     1.167141  p :     4.442846
      px      :     1.780028
      py      :     1.495677
      dz2     :     0.004335  d :     0.012764
      dxz     :     0.000606
      dyz     :     0.000973
      dx2y2   :     0.002575
      dxy     :     0.004275
      f0      :     0.000017  f :     0.000390
      f+1     :     0.000024
      f-1     :     0.000019
      f+2     :     0.000018
      f-2     :     0.000029
      f+3     :     0.000216
      f-3     :     0.000067

 14 H s       :     0.694259  s :     0.694259
      pz      :     0.019178  p :     0.081255
      px      :     0.034099
      py      :     0.027978
      dz2     :     0.000865  d :     0.008379
      dxz     :     0.000473
      dyz     :     0.001325
      dx2y2   :     0.003030
      dxy     :     0.002686


SPIN
  0 C s       :     0.006570  s :     0.006570
      pz      :     0.009808  p :     0.025947
      px      :     0.005357
      py      :     0.010781
      dz2     :     0.000098  d :    -0.004192
      dxz     :    -0.001143
      dyz     :    -0.002977
      dx2y2   :    -0.000070
      dxy     :    -0.000100
      f0      :    -0.000052  f :    -0.000225
      f+1     :    -0.000011
      f-1     :    -0.000001
      f+2     :    -0.000099
      f-2     :    -0.000037
      f+3     :    -0.000007
      f-3     :    -0.000017

  1 C s       :    -0.001417  s :    -0.001417
      pz      :     0.001166  p :     0.001068
      px      :     0.000500
      py      :    -0.000597
      dz2     :     0.000043  d :    -0.000011
      dxz     :    -0.000058
      dyz     :    -0.000059
      dx2y2   :     0.000087
      dxy     :    -0.000025
      f0      :    -0.000002  f :    -0.000020
      f+1     :    -0.000000
      f-1     :     0.000002
      f+2     :    -0.000008
      f-2     :    -0.000002
      f+3     :    -0.000005
      f-3     :    -0.000004

  2 C s       :    -0.010652  s :    -0.010652
      pz      :    -0.019949  p :    -0.050325
      px      :    -0.007385
      py      :    -0.022991
      dz2     :     0.000133  d :     0.008107
      dxz     :     0.002312
      dyz     :     0.005528
      dx2y2   :     0.000024
      dxy     :     0.000109
      f0      :     0.000177  f :     0.000509
      f+1     :     0.000016
      f-1     :     0.000000
      f+2     :     0.000186
      f-2     :     0.000087
      f+3     :     0.000012
      f-3     :     0.000031

  3 C s       :     0.045186  s :     0.045186
      pz      :     0.380369  p :     0.447670
      px      :     0.035596
      py      :     0.031705
      dz2     :    -0.001811  d :    -0.000762
      dxz     :    -0.002661
      dyz     :     0.000426
      dx2y2   :     0.001265
      dxy     :     0.002019
      f0      :    -0.000194  f :    -0.000861
      f+1     :    -0.000242
      f-1     :    -0.000293
      f+2     :    -0.000113
      f-2     :     0.000013
      f+3     :    -0.000024
      f-3     :    -0.000008

  4 C s       :    -0.024495  s :    -0.024495
      pz      :    -0.193940  p :    -0.247444
      px      :    -0.032738
      py      :    -0.020766
      dz2     :     0.004310  d :     0.008834
      dxz     :     0.006096
      dyz     :    -0.000435
      dx2y2   :     0.000143
      dxy     :    -0.001280
      f0      :     0.000763  f :     0.001542
      f+1     :     0.000131
      f-1     :     0.000140
      f+2     :     0.000387
      f-2     :    -0.000002
      f+3     :     0.000081
      f-3     :     0.000042

  5 H s       :    -0.013594  s :    -0.013594
      pz      :     0.000051  p :     0.000277
      px      :     0.000102
      py      :     0.000123
      dz2     :    -0.000009  d :    -0.000008
      dxz     :    -0.000003
      dyz     :     0.000003
      dx2y2   :    -0.000000
      dxy     :     0.000001

  6 H s       :    -0.005293  s :    -0.005293
      pz      :     0.000018  p :     0.000019
      px      :    -0.000016
      py      :     0.000017
      dz2     :     0.000002  d :     0.000006
      dxz     :    -0.000001
      dyz     :     0.000002
      dx2y2   :     0.000001
      dxy     :     0.000003

  7 H s       :    -0.000587  s :    -0.000587
      pz      :     0.000009  p :     0.000059
      px      :     0.000003
      py      :     0.000047
      dz2     :     0.000001  d :     0.000003
      dxz     :     0.000000
      dyz     :     0.000000
      dx2y2   :     0.000001
      dxy     :     0.000000

  8 H s       :    -0.000043  s :    -0.000043
      pz      :    -0.000008  p :     0.000008
      px      :     0.000001
      py      :     0.000015
      dz2     :    -0.000001  d :    -0.000000
      dxz     :     0.000000
      dyz     :     0.000001
      dx2y2   :    -0.000001
      dxy     :    -0.000000

  9 H s       :     0.015320  s :     0.015320
      pz      :    -0.000069  p :    -0.000076
      px      :     0.000030
      py      :    -0.000037
      dz2     :    -0.000001  d :     0.000003
      dxz     :     0.000002
      dyz     :    -0.000003
      dx2y2   :     0.000005
      dxy     :    -0.000000

 10 H s       :     0.023775  s :     0.023775
      pz      :     0.000237  p :     0.000239
      px      :     0.000045
      py      :    -0.000043
      dz2     :     0.000012  d :     0.000013
      dxz     :     0.000005
      dyz     :    -0.000004
      dx2y2   :    -0.000000
      dxy     :     0.000000

 11 H s       :    -0.039791  s :    -0.039791
      pz      :     0.004594  p :     0.004214
      px      :    -0.000177
      py      :    -0.000204
      dz2     :    -0.000018  d :     0.000329
      dxz     :     0.000103
      dyz     :     0.000185
      dx2y2   :     0.000025
      dxy     :     0.000034

 12 H s       :     0.022517  s :     0.022517
      pz      :    -0.002775  p :    -0.002816
      px      :     0.000065
      py      :    -0.000106
      dz2     :     0.000012  d :    -0.000157
      dxz     :    -0.000038
      dyz     :    -0.000110
      dx2y2   :    -0.000010
      dxy     :    -0.000011

 13 O s       :     0.006888  s :     0.006888
      pz      :     0.752038  p :     0.809419
      px      :     0.038679
      py      :     0.018702
      dz2     :    -0.000739  d :    -0.000216
      dxz     :    -0.000046
      dyz     :     0.000351
      dx2y2   :     0.000064
      dxy     :     0.000155
      f0      :     0.000001  f :    -0.000130
      f+1     :    -0.000019
      f-1     :    -0.000123
      f+2     :     0.000011
      f-2     :    -0.000002
      f+3     :     0.000001
      f-3     :     0.000001

 14 H s       :    -0.030050  s :    -0.030050
      pz      :     0.006168  p :     0.003577
      px      :    -0.001737
      py      :    -0.000854
      dz2     :    -0.000098  d :     0.001064
      dxz     :     0.000264
      dyz     :     0.000819
      dx2y2   :    -0.000021
      dxy     :     0.000101



                     *******************************
                     * LOEWDIN POPULATION ANALYSIS *
                     *******************************

-------------------------------------------
LOEWDIN ATOMIC CHARGES AND SPIN POPULATIONS
-------------------------------------------
   0 C :   -0.014581   -0.008524
   1 C :    0.003587   -0.000958
   2 C :   -0.019383    0.017855
   3 C :    0.002850    0.286453
   4 C :    0.005305   -0.088031
   5 H :    0.015602   -0.006448
   6 H :    0.017540   -0.002320
   7 H :    0.004532   -0.000247
   8 H :    0.016783   -0.000254
   9 H :    0.014215    0.006454
  10 H :    0.016128    0.011916
  11 H :   -0.002680    0.018436
  12 H :    0.007149   -0.009476
  13 O :    0.111254    0.739856
  14 H :   -0.178302    0.035288

----------------------------------------------------
LOEWDIN REDUCED ORBITAL CHARGES AND SPIN POPULATIONS
----------------------------------------------------
CHARGE
  0 C s       :     2.689539  s :     2.689539
      pz      :     1.000412  p :     2.879891
      px      :     0.952604
      py      :     0.926874
      dz2     :     0.073143  d :     0.402566
      dxz     :     0.091341
      dyz     :     0.049808
      dx2y2   :     0.098418
      dxy     :     0.089856
      f0      :     0.004673  f :     0.042585
      f+1     :     0.004246
      f-1     :     0.005046
      f+2     :     0.004677
      f-2     :     0.005573
      f+3     :     0.009383
      f-3     :     0.008987

  1 C s       :     2.691647  s :     2.691647
      pz      :     1.009246  p :     2.872984
      px      :     0.910905
      py      :     0.952833
      dz2     :     0.085050  d :     0.390375
      dxz     :     0.053449
      dyz     :     0.064826
      dx2y2   :     0.098678
      dxy     :     0.088371
      f0      :     0.005721  f :     0.041407
      f+1     :     0.004769
      f-1     :     0.002666
      f+2     :     0.005537
      f-2     :     0.006090
      f+3     :     0.009321
      f-3     :     0.007303

  2 C s       :     2.689019  s :     2.689019
      pz      :     0.997309  p :     2.880021
      px      :     0.949492
      py      :     0.933221
      dz2     :     0.063789  d :     0.407391
      dxz     :     0.100711
      dyz     :     0.056283
      dx2y2   :     0.097439
      dxy     :     0.089169
      f0      :     0.004536  f :     0.042951
      f+1     :     0.004736
      f-1     :     0.005011
      f+2     :     0.004836
      f-2     :     0.005542
      f+3     :     0.009478
      f-3     :     0.008813

  3 C s       :     2.738205  s :     2.738205
      pz      :     0.817505  p :     2.818288
      px      :     1.035616
      py      :     0.965168
      dz2     :     0.032171  d :     0.397464
      dxz     :     0.055407
      dyz     :     0.035542
      dx2y2   :     0.113843
      dxy     :     0.160500
      f0      :     0.002711  f :     0.043193
      f+1     :     0.003753
      f-1     :     0.003045
      f+2     :     0.006544
      f-2     :     0.001874
      f+3     :     0.008584
      f-3     :     0.016682

  4 C s       :     2.739366  s :     2.739366
      pz      :     0.751256  p :     2.770722
      px      :     1.045650
      py      :     0.973817
      dz2     :     0.060336  d :     0.437801
      dxz     :     0.068263
      dyz     :     0.037799
      dx2y2   :     0.113709
      dxy     :     0.157694
      f0      :     0.005261  f :     0.046806
      f+1     :     0.003872
      f-1     :     0.003319
      f+2     :     0.007213
      f-2     :     0.002129
      f+3     :     0.008392
      f-3     :     0.016620

  5 H s       :     0.807657  s :     0.807657
      pz      :     0.066574  p :     0.148257
      px      :     0.042161
      py      :     0.039522
      dz2     :     0.009431  d :     0.028485
      dxz     :     0.008849
      dyz     :     0.007525
      dx2y2   :     0.001185
      dxy     :     0.001495

  6 H s       :     0.806302  s :     0.806302
      pz      :     0.052084  p :     0.147220
      px      :     0.056715
      py      :     0.038421
      dz2     :     0.007443  d :     0.028938
      dxz     :     0.007367
      dyz     :     0.003180
      dx2y2   :     0.005097
      dxy     :     0.005852

  7 H s       :     0.817501  s :     0.817501
      pz      :     0.047938  p :     0.149222
      px      :     0.039330
      py      :     0.061954
      dz2     :     0.006382  d :     0.028745
      dxz     :     0.001801
      dyz     :     0.007556
      dx2y2   :     0.005802
      dxy     :     0.007205

  8 H s       :     0.803991  s :     0.803991
      pz      :     0.071604  p :     0.149779
      px      :     0.038299
      py      :     0.039876
      dz2     :     0.009936  d :     0.029448
      dxz     :     0.008711
      dyz     :     0.009823
      dx2y2   :     0.000261
      dxy     :     0.000717

  9 H s       :     0.809491  s :     0.809491
      pz      :     0.053400  p :     0.147634
      px      :     0.055048
      py      :     0.039186
      dz2     :     0.007751  d :     0.028661
      dxz     :     0.007270
      dyz     :     0.003548
      dx2y2   :     0.004705
      dxy     :     0.005387

 10 H s       :     0.806961  s :     0.806961
      pz      :     0.065285  p :     0.148492
      px      :     0.042994
      py      :     0.040213
      dz2     :     0.009331  d :     0.028419
      dxz     :     0.008464
      dyz     :     0.007085
      dx2y2   :     0.001632
      dxy     :     0.001907

 11 H s       :     0.820131  s :     0.820131
      pz      :     0.044684  p :     0.154764
      px      :     0.046455
      py      :     0.063625
      dz2     :     0.002530  d :     0.027785
      dxz     :     0.003272
      dyz     :     0.005155
      dx2y2   :     0.008929
      dxy     :     0.007899

 12 H s       :     0.815188  s :     0.815188
      pz      :     0.038052  p :     0.150166
      px      :     0.046769
      py      :     0.065344
      dz2     :     0.002789  d :     0.027498
      dxz     :     0.002795
      dyz     :     0.004572
      dx2y2   :     0.009201
      dxy     :     0.008140

 13 O s       :     3.498781  s :     3.498781
      pz      :     1.111920  p :     4.365022
      px      :     1.704981
      py      :     1.548121
      dz2     :     0.008648  d :     0.023294
      dxz     :     0.000929
      dyz     :     0.001076
      dx2y2   :     0.004052
      dxy     :     0.008590
      f0      :     0.000277  f :     0.001648
      f+1     :     0.000138
      f-1     :     0.000236
      f+2     :     0.000066
      f-2     :     0.000107
      f+3     :     0.000570
      f-3     :     0.000254

 14 H s       :     0.717645  s :     0.717645
      pz      :     0.065600  p :     0.365203
      px      :     0.130798
      py      :     0.168806
      dz2     :     0.009091  d :     0.095454
      dxz     :     0.006201
      dyz     :     0.018192
      dx2y2   :     0.033736
      dxy     :     0.028234


SPIN
  0 C s       :     0.000809  s :     0.000809
      pz      :     0.001585  p :     0.007227
      px      :     0.001092
      py      :     0.004550
      dz2     :    -0.001587  d :    -0.015109
      dxz     :    -0.002959
      dyz     :    -0.009047
      dx2y2   :    -0.000641
      dxy     :    -0.000874
      f0      :    -0.000391  f :    -0.001452
      f+1     :    -0.000041
      f-1     :    -0.000028
      f+2     :    -0.000514
      f-2     :    -0.000270
      f+3     :    -0.000109
      f-3     :    -0.000100

  1 C s       :    -0.000116  s :    -0.000116
      pz      :    -0.000023  p :     0.000109
      px      :     0.000217
      py      :    -0.000085
      dz2     :    -0.000138  d :    -0.000875
      dxz     :    -0.000089
      dyz     :    -0.000336
      dx2y2   :    -0.000141
      dxy     :    -0.000171
      f0      :    -0.000001  f :    -0.000077
      f+1     :    -0.000004
      f-1     :    -0.000002
      f+2     :    -0.000014
      f-2     :    -0.000015
      f+3     :    -0.000038
      f-3     :    -0.000001

  2 C s       :    -0.001945  s :    -0.001945
      pz      :    -0.003308  p :    -0.014268
      px      :    -0.002439
      py      :    -0.008522
      dz2     :     0.001020  d :     0.030696
      dxz     :     0.008377
      dyz     :     0.018575
      dx2y2   :     0.001527
      dxy     :     0.001197
      f0      :     0.001105  f :     0.003372
      f+1     :     0.000075
      f-1     :     0.000051
      f+2     :     0.001199
      f-2     :     0.000601
      f+3     :     0.000203
      f-3     :     0.000138

  3 C s       :     0.012557  s :     0.012557
      pz      :     0.277131  p :     0.295668
      px      :     0.010063
      py      :     0.008473
      dz2     :    -0.000545  d :    -0.018726
      dxz     :    -0.015571
      dyz     :     0.000692
      dx2y2   :    -0.001576
      dxy     :    -0.001728
      f0      :    -0.000711  f :    -0.003045
[...]
     38       0.000897  -0.001863  -0.000295  -0.000247  -0.002426  -0.000102
     39      -0.000047  -0.000055   0.000040   0.000075  -0.000178  -0.000005
     40       0.000001  -0.000035   0.000128  -0.000084  -0.000199  -0.000283
     41       0.000063   0.000116  -0.000116   0.000094   0.000032   0.000200
     42       0.000143  -0.000129  -0.000900   0.000175   0.000118   0.000510
     43       0.000160  -0.000001  -0.000086   0.000267   0.001207   0.000407
     44      -0.000346   0.000528   0.000309  -0.000119   0.001594  -0.000275
                 42         43         44    
      0      -0.000778  -0.003149   0.000001
      1      -0.000581  -0.002476   0.000029
      2      -0.000617  -0.000155  -0.000213
      3       0.000398   0.000115  -0.000030
      4       0.000609  -0.001555  -0.000082
      5       0.000175  -0.000349  -0.000076
      6      -0.002838   0.001927  -0.000093
      7       0.002286  -0.001518  -0.000013
      8       0.000777   0.000003  -0.000041
      9      -0.046606   0.027196   0.000848
     10      -0.063884   0.028099   0.000054
     11      -0.002125   0.001099  -0.000003
     12      -0.015774  -0.051099  -0.000691
     13       0.027870   0.065546   0.000008
     14       0.001744   0.005851  -0.000287
     15      -0.000249   0.004667   0.000357
     16       0.001175   0.004158   0.000841
     17       0.000059  -0.012355   0.000455
     18       0.008007   0.020768   0.001235
     19       0.002619   0.006202   0.000907
     20       0.007608   0.015383   0.000056
     21      -0.000670  -0.000158   0.000166
     22      -0.003044   0.007154   0.000483
     23       0.001607  -0.003827   0.000062
     24      -0.000428   0.000156  -0.000357
     25      -0.000921   0.001547   0.000820
     26      -0.003216   0.006123   0.000805
     27       0.020561  -0.010902   0.000149
     28      -0.006993   0.003401   0.000501
     29      -0.018270   0.008244   0.000114
     30       0.002916  -0.003599   0.000172
     31      -0.003632   0.002530   0.000520
     32       0.007837  -0.007362   0.000247
     33       0.527565  -0.231207  -0.000847
     34       0.743380  -0.319884  -0.000512
     35       0.026167  -0.010694  -0.000811
     36       0.223438   0.516933  -0.000133
     37      -0.330790  -0.750688   0.000598
     38      -0.026052  -0.059765   0.000570
     39       0.000098   0.000123  -0.029556
     40      -0.000135  -0.000258  -0.055300
     41       0.000396  -0.000943   0.007778
     42      -0.001051  -0.000595   0.467949
     43       0.001902  -0.000057   0.873614
     44      -0.001483   0.002379  -0.117557


-----------
IR SPECTRUM
-----------

 Mode   freq       eps      Int      T**2         TX        TY        TZ
       cm**-1   L/(mol*cm) km/mol    a.u.
----------------------------------------------------------------------------
  7:     92.51   0.005585   28.23  0.018842  (-0.113162  0.053185  0.056639)
  8:    160.89   0.000591    2.99  0.001146  ( 0.002354  0.020421 -0.026891)
  9:    188.71   0.003937   19.89  0.006510  ( 0.064989 -0.029729 -0.037451)
 10:    233.22   0.005825   29.43  0.007794  ( 0.060397 -0.056622  0.030657)
 11:    356.61   0.000613    3.10  0.000536  (-0.011429  0.005475  0.019384)
 12:    617.53   0.000186    0.94  0.000094  ( 0.001443  0.001321 -0.009504)
 13:    708.16   0.011042   55.80  0.004866  (-0.011793  0.000886 -0.068746)
 14:    763.04   0.005808   29.35  0.002375  (-0.000024  0.004414 -0.048536)
 15:    780.69   0.000106    0.54  0.000042  ( 0.003585  0.000694  0.005397)
 16:    839.77   0.001038    5.25  0.000386  ( 0.002624  0.004693  0.018889)
 17:    889.01   0.000454    2.29  0.000159  (-0.012404  0.001118 -0.002068)
 18:    922.14   0.000146    0.74  0.000050  (-0.002929  0.005290  0.003603)
 19:    930.76   0.002104   10.63  0.000705  ( 0.026122 -0.000364  0.004788)
 20:    988.00   0.001459    7.37  0.000461  ( 0.006291 -0.000533  0.020517)
 21:    997.56   0.000627    3.17  0.000196  ( 0.000069  0.007513 -0.011818)
 22:   1049.88   0.000528    2.67  0.000157  (-0.011573  0.001285 -0.004629)
 23:   1077.05   0.002503   12.65  0.000725  ( 0.000072 -0.000859  0.026913)
 24:   1139.31   0.001564    7.90  0.000428  (-0.000309  0.002873 -0.020492)
 25:   1158.82   0.000643    3.25  0.000173  (-0.009307  0.002884 -0.008844)
 26:   1237.65   0.000012    0.06  0.000003  ( 0.000705  0.001381  0.000757)
 27:   1245.10   0.000584    2.95  0.000146  (-0.000723 -0.003492 -0.011558)
 28:   1318.74   0.000374    1.89  0.000088  (-0.009073  0.000022 -0.002467)
 29:   1337.81   0.000112    0.57  0.000026  ( 0.003067  0.003836  0.001408)
 30:   1344.78   0.000321    1.62  0.000074  (-0.000979 -0.008499 -0.001141)
 31:   1400.17   0.000474    2.40  0.000106  ( 0.010169 -0.000373 -0.001470)
 32:   1484.22   0.001219    6.16  0.000256  (-0.003658  0.000400 -0.015580)
 33:   1487.86   0.000802    4.05  0.000168  (-0.012738  0.000233  0.002413)
 34:   1510.26   0.000838    4.23  0.000173  ( 0.001617  0.010975  0.007078)
 35:   1663.07   0.032181  162.63  0.006038  ( 0.005122 -0.026441  0.072891)
 36:   3026.21   0.005459   27.59  0.000563  ( 0.017934 -0.003989  0.015012)
 37:   3038.06   0.006337   32.02  0.000651  ( 0.020140  0.002539 -0.015454)
 38:   3086.91   0.004273   21.60  0.000432  (-0.007355 -0.018593  0.005675)
 39:   3094.30   0.005646   28.53  0.000569  (-0.013650  0.018733  0.005672)
 40:   3117.26   0.002613   13.21  0.000262  ( 0.013368  0.008830  0.002222)
 41:   3142.42   0.003539   17.88  0.000351  ( 0.000673 -0.006419  0.017601)
 42:   3204.30   0.001136    5.74  0.000111  (-0.007144 -0.006568 -0.004053)
 43:   3235.85   0.003399   17.18  0.000328  (-0.000573  0.011935  0.013602)
 44:   3787.70   0.004845   24.48  0.000399  ( 0.000307  0.010676 -0.016884)

* The epsilon (eps) is given for a Dirac delta lineshape.
** The dipole moment derivative (T) already includes vibrational overlap.

The first frequency considered to be a vibration is 7
The total number of vibrations considered is 38


--------------------------
THERMOCHEMISTRY AT 298.15K
--------------------------

Temperature         ...   298.15 K
Pressure            ...     1.00 atm
Total Mass          ...    85.13 AMU
Quasi RRHO          ...     True
Cut-Off Frequency   ...     1.00 cm^-1

Throughout the following assumptions are being made:
  (1) The electronic state is orbitally nondegenerate
      but the spin degeneracy is treated
  (2) There are no thermally accessible electronically excited states
  (3) Hindered rotations indicated by low frequency modes are not
      treated as such but are treated as vibrations and this may
      cause some error
  (4) All equations used are the standard statistical mechanics
      equations for an ideal gas
  (5) All vibrations are strictly harmonic

freq.      92.51  E(vib)   ...       0.47 
freq.     160.89  E(vib)   ...       0.39 
freq.     188.71  E(vib)   ...       0.36 
freq.     233.22  E(vib)   ...       0.32 
freq.     356.61  E(vib)   ...       0.22 
freq.     617.53  E(vib)   ...       0.09 
freq.     708.16  E(vib)   ...       0.07 
freq.     763.04  E(vib)   ...       0.06 
freq.     780.69  E(vib)   ...       0.05 
freq.     839.77  E(vib)   ...       0.04 
freq.     889.01  E(vib)   ...       0.04 
freq.     922.14  E(vib)   ...       0.03 
freq.     930.76  E(vib)   ...       0.03 
freq.     988.00  E(vib)   ...       0.02 
freq.     997.56  E(vib)   ...       0.02 
freq.    1049.88  E(vib)   ...       0.02 
freq.    1077.05  E(vib)   ...       0.02 
freq.    1139.31  E(vib)   ...       0.01 
freq.    1158.82  E(vib)   ...       0.01 
freq.    1237.65  E(vib)   ...       0.01 
freq.    1245.10  E(vib)   ...       0.01 
freq.    1318.74  E(vib)   ...       0.01 
freq.    1337.81  E(vib)   ...       0.01 
freq.    1344.78  E(vib)   ...       0.01 
freq.    1400.17  E(vib)   ...       0.00 
freq.    1484.22  E(vib)   ...       0.00 
freq.    1487.86  E(vib)   ...       0.00 
freq.    1510.26  E(vib)   ...       0.00 
freq.    1663.07  E(vib)   ...       0.00 
freq.    3026.21  E(vib)   ...       0.00 
freq.    3038.06  E(vib)   ...       0.00 
freq.    3086.91  E(vib)   ...       0.00 
freq.    3094.30  E(vib)   ...       0.00 
freq.    3117.26  E(vib)   ...       0.00 
freq.    3142.42  E(vib)   ...       0.00 
freq.    3204.30  E(vib)   ...       0.00 
freq.    3235.85  E(vib)   ...       0.00 
freq.    3787.70  E(vib)   ...       0.00 

------------
INNER ENERGY
------------

The inner energy is: U= E(el) + E(ZPE) + E(vib) + E(rot) + E(trans)
    E(el)   - is the total energy from the electronic structure calculation
              = E(kin-el) + E(nuc-el) + E(el-el) + E(nuc-nuc)
    E(ZPE)  - the the zero temperature vibrational energy from the frequency calculation
    E(vib)  - the the finite temperature correction to E(ZPE) due to population
              of excited vibrational states
    E(rot)  - is the rotational thermal energy
    E(trans)- is the translational thermal energy

Summary of contributions to the inner energy U:
Electronic energy                ...   -270.66337990 Eh
Zero point energy                ...      0.12907260 Eh      80.99 kcal/mol
Thermal vibrational correction   ...      0.00372985 Eh       2.34 kcal/mol
Thermal rotational correction    ...      0.00141627 Eh       0.89 kcal/mol
Thermal translational correction ...      0.00141627 Eh       0.89 kcal/mol
-----------------------------------------------------------------------
Total thermal energy                   -270.52774491 Eh


Summary of corrections to the electronic energy:
(perhaps to be used in another calculation)
Total thermal correction                  0.00656239 Eh       4.12 kcal/mol
Non-thermal (ZPE) correction              0.12907260 Eh      80.99 kcal/mol
-----------------------------------------------------------------------
Total correction                          0.13563499 Eh      85.11 kcal/mol


--------
ENTHALPY
--------

The enthalpy is H = U + kB*T
                kB is Boltzmann's constant
Total thermal energy              ...   -270.52774491 Eh 
Thermal Enthalpy correction       ...      0.00094421 Eh       0.59 kcal/mol
-----------------------------------------------------------------------
Total Enthalpy                    ...   -270.52680070 Eh


Note: Only C1 symmetry has been detected, increase convergence thresholds 
      if your molecule has a higher symmetry. Symmetry factor of 1.0 is   
      used for the rotational entropy correction. 
 

Note: Rotational entropy computed according to Herzberg 
Infrared and Raman Spectra, Chapter V,1, Van Nostrand Reinhold, 1945 
Point Group:  C1, Symmetry Number:   1  
Rotational constants in cm-1:     0.156239     0.110709     0.097198 

Vibrational entropy computed according to the QRRHO of S. Grimme
Chem.Eur.J. 2012 18 9955 using a reference frequency of 100.0 cm-1


-------
ENTROPY
-------

The entropy contributions are T*S = T*(S(el)+S(vib)+S(rot)+S(trans))
     S(el)   - electronic entropy
     S(vib)  - vibrational entropy
     S(rot)  - rotational entropy
     S(trans)- translational entropy
The entropies will be listed as multiplied by the temperature to get
units of energy

Electronic entropy                ...      0.00065446 Eh      0.41 kcal/mol
Vibrational entropy               ...      0.00635297 Eh      3.99 kcal/mol
Rotational entropy                ...      0.01252663 Eh      7.86 kcal/mol
Translational entropy             ...      0.01864317 Eh     11.70 kcal/mol
-----------------------------------------------------------------------
Final entropy term                ...      0.03817723 Eh     23.96 kcal/mol

In case the symmetry of your molecule has not been determined correctly
or in case you have a reason to use a different symmetry number we print 
out the resulting rotational entropy values for sn=1,12:

 non-linear molecules -----------------------------------
|  sn= 1 | S(rot)=       0.01252663 Eh      7.86 kcal/mol|
|  sn= 2 | S(rot)=       0.01187217 Eh      7.45 kcal/mol|
|  sn= 3 | S(rot)=       0.01148934 Eh      7.21 kcal/mol|
|  sn= 4 | S(rot)=       0.01121772 Eh      7.04 kcal/mol|
|  sn= 5 | S(rot)=       0.01100703 Eh      6.91 kcal/mol|
|  sn= 6 | S(rot)=       0.01083489 Eh      6.80 kcal/mol|
|  sn= 7 | S(rot)=       0.01068934 Eh      6.71 kcal/mol|
|  sn= 8 | S(rot)=       0.01056326 Eh      6.63 kcal/mol|
|  sn= 9 | S(rot)=       0.01045205 Eh      6.56 kcal/mol|
|  sn=10 | S(rot)=       0.01035257 Eh      6.50 kcal/mol|
|  sn=11 | S(rot)=       0.01026258 Eh      6.44 kcal/mol|
|  sn=12 | S(rot)=       0.01018043 Eh      6.39 kcal/mol|
 linear molecules ---------------------------------------
|  Dinfh | S(rot)=       0.00752670 Eh      4.72 kcal/mol|
|  Cinfv | S(rot)=       0.00818116 Eh      5.13 kcal/mol|
 --------------------------------------------------------


-------------------
GIBBS FREE ENERGY
-------------------

The Gibbs free energy is G = H - T*S

Total enthalpy                    ...   -270.52680070 Eh 
Total entropy correction          ...     -0.03817723 Eh    -23.96 kcal/mol
-----------------------------------------------------------------------
Final Gibbs free energy         ...   -270.56497793 Eh

For completeness - the Gibbs free energy minus the electronic energy
G-E(el)                           ...      0.09840198 Eh     61.75 kcal/mol



--------------------------------
SUGGESTED CITATIONS FOR THIS RUN
--------------------------------

Below you find a list of papers that are relevant to this ORCA run
We neither can nor want to force you to cite these papers, but we appreciate if you do
You receive ORCA, which is the product of decades of hard work by many enthusiastic individuals, for free
The only thing we kindly ask in return is that you cite our papers,
We deeply appreciate it, if you show your appreciation for ORCA by not just citing the generic ORCA reference.

Please note that relegating all ORCA citations to the supporting information does *not* help us.
SI sections are not indexed - citations you put there will not count into any citation statistics
But we need these citations in order to attract the funding resources that allow us to do what we are doing

Therefore, if you are a happy ORCA user, please consider citing a few of the papers listed below in the main body of your paper

In addition to the list printed below, the program has created the file opt.bibtex that contains the list in bibtex format
You can import this file easily into all common literature databanks and citation aid programs

It goes without saying that in many instances, there are alternative algorithms to achieve similar
results as the ones you have gotten from ORCA. It is, of course, also the case that in some instances
ORCA just re-implements algorithms worked out by others. We are fully aware of that and we are also
fully appreciative of our colleagues work. Hence this citation list should not be read as indicating
that the listed papers, which are focused on our own work, are the only ones worth citing. It simply
meant to make it easier for users to cite ORCA specific papers. It is not a substitute for doing your
own literature research and citing the relevant literature in a scientifically appropriate manner.

List of essential papers. We consider these as the minimum necessary citations

  1. Neese, F.
     Software update: the ORCA program system, version 6.0
     WIRES Comput. Molec. Sci. 2025 15(1), e70019
     doi.org/10.1002/wcms.70019

List of papers to cite with high priority. The work reported in these papers was absolutely
necessary for this run to complete.
Our perspective: the developers of density functionals and basis sets usually get cited in chemistry papers
Good! But without the algorithms to do something with them, the functionals or basis sets would not do anything.
Hence, in our opinion, the algorithm design and method developments papers are equally worthy of getting cited

  1. Neese, F.
     An improvement of the resolution of the identity approximation for the formation of the Coulomb matrix
     J. Comp. Chem. 2003 24(14), 1740-1747
     doi.org/10.1002/jcc.10318
  2. Neese, F.; Schwabe, T.; Grimme, S.
     Analytic derivatives for perturbatively corrected 'double hybrid' density functionals: Theory, implementation, and applications
     J. Chem. Phys. 2007 126(12), Art. No. 124115
     doi.org/10.1063/1.2712433
  3. Neese, F.; Wennmohs, F.; Hansen, A.; Becker, U.
     Efficient, approximate and parallel Hartree-Fock and hybrid DFT calculations. A 'chain-of-spheres' algorithm for the Hartree-Fock exchange
     Chem. Phys. 2009 356(1-3), 98-109
     doi.org/10.1016/j.chemphys.2008.10.036
  4. Kossmann, S.; Neese, F.
     Efficient Structure Optimization with Second-Order Many-Body Perturbation Theory: The RIJCOSX-MP2 Method
     J. Theo. Comp. Chem. 2010 6 , 2325-2338
     doi.org/10.1021/ct100199k
  5. Caldeweyher, E.; Bannwarth, C.; Grimme, S.
     Extension of the D3 dispersion coefficient model
     J. Chem. Phys. 2017 147 , 034112
     doi.org/10.1063/1.4993215
  6. Caldeweyher, E.; Ehlert, S.; Hansen, A.; Neugebauer, H.; Spicher, S.; Bannwarth, C.; Grimme, S.
     A generally applicable atomic-charge dependent London dispersion correction
     J. Chem. Phys. 2019 150 , 154122
     doi.org/10.1063/1.5090222
  7. Helmich-Paris, B.; de Souza, B.; Neese, F.; Izsák, R.
     An improved chain of spheres for exchange algorithm
     J. Chem. Phys. 2021 155(10), 104109
     doi.org/10.1063/5.0058766
  8. Neese, F.
     The SHARK Integral Generation and Digestion System
     J. Comp. Chem. 2022 44(3), 381
     doi.org/10.1002/jcc.26942

List of suggested additional citations. These are papers that are important in the 'surrounding' of 
of this run, or papers that preceded the highly important papers. If you like your results we are grateful for a citation.

  1. Izsak, R.; Neese, F.
     An overlap fitted chain of spheres exchange method
     J. Chem. Phys. 2011 135 , 144105
     doi.org/10.1063/1.3646921
  2. Izsak, R.; Hansen, A.; Neese, F.
     The resolution of identity and chain of spheres approximations for the LPNO-CCSD singles Fock term
     Molec. Phys. 2012 110 , 2413-2417
     doi.org/10.1080/00268976.2012.687466
  3. Neese, F.
     The ORCA program system
     WIRES Comput. Molec. Sci. 2012 2(1), 73-78
     doi.org/10.1002/wcms.81
  4. Izsak, R.; Neese, F.; Klopper, W.
     Robust fitting techniques in the chain of spheres approximation to the Fock exchange: The role of the complementary space
     J. Chem. Phys. 2013 139 , 
     doi.org/10.1063/1.4819264
  5. Neese, F.
     Software update: the ORCA program system, version 4.0
     WIRES Comput. Molec. Sci. 2018 8(1), 1-6
     doi.org/10.1002/wcms.1327
  6. Neese, F.; Wennmohs, F.; Becker, U.; Riplinger, C.
     The ORCA quantum chemistry program package
     J. Chem. Phys. 2020 152(22), 224108
     doi.org/10.1063/5.0004608
  7. Neese, F.
     Software update: The ORCA program system—Version 5.0
     WIRES Comput. Molec. Sci. 2022 12(1), e1606
     doi.org/10.1002/wcms.1606

List of optional additional citations

  1. Neese, F.
     Approximate second-order SCF convergence for spin unrestricted wavefunctions
     Chem. Phys. Lett. 2000 325(1-3), 93-98
     doi.org/10.1016/s0009-2614(00)00662-x

Timings for individual modules:

Sum of individual times          ...    10503.919 sec (= 175.065 min)
Startup calculation              ...       24.164 sec (=   0.403 min)   0.2 %
SCF iterations                   ...      327.740 sec (=   5.462 min)   3.1 %
Property calculations            ...        2.933 sec (=   0.049 min)   0.0 %
MP2 module                       ...      252.554 sec (=   4.209 min)   2.4 %
Geometry relaxation              ...        0.038 sec (=   0.001 min)   0.0 %
Numerical frequency calculation  ...     9896.490 sec (= 164.942 min)  94.2 %
                             ****ORCA TERMINATED NORMALLY****
TOTAL RUN TIME: 0 days 2 hours 50 minutes 25 seconds 568 msec
