
                                 *****************
                                 * O   R   C   A *
                                 *****************

                                            #,                                       
                                            ###                                      
                                            ####                                     
                                            #####                                    
                                            ######                                   
                                           ########,                                 
                                     ,,################,,,,,                         
                               ,,#################################,,                 
                          ,,##########################################,,             
                       ,#########################################, ''#####,          
                    ,#############################################,,   '####,        
                  ,##################################################,,,,####,       
                ,###########''''           ''''###############################       
              ,#####''   ,,,,##########,,,,          '''####'''          '####       
            ,##' ,,,,###########################,,,                        '##       
           ' ,,###''''                  '''############,,,                           
         ,,##''                                '''############,,,,        ,,,,,,###''
      ,#''                                            '''#######################'''  
     '                                                          ''''####''''         
             ,#######,   #######,   ,#######,      ##                                
            ,#'     '#,  ##    ##  ,#'     '#,    #''#        ,####,    ,#,          
            ##       ##  ##   ,#'  ##            #'  '#       #'       ,# #          
            ##       ##  #######   ##           ,######,      #####,      #          
            '#,     ,#'  ##    ##  '#,     ,#' ,#      #,     #,   #      #          
             '#######'   ##     ##  '#######'  #'      '#     '####' #    #          



                #########################################################
                #                        -***-                          #
                #          Department of theory and spectroscopy        #
                #                                                       #
                #                      Frank Neese                      #
                #                                                       #
                #     Directorship, Architecture, Infrastructure        #
                #                    SHARK, DRIVERS                     #
                #        Core code/Algorithms in most modules           #
                #                                                       #
                #        Max Planck Institute fuer Kohlenforschung      #
                #                Kaiser Wilhelm Platz 1                 #
                #                 D-45470 Muelheim/Ruhr                 #
                #                      Germany                          #
                #                                                       #
                #                  All rights reserved                  #
                #                        -***-                          #
                #########################################################


                         Program Version 6.1.1  -  RELEASE   -
                                (GIT: $487d211c$)
                          ($2025-11-21 10:33:24 +0100$)


 With contributions from (in alphabetic order):
[Max-Planck-Institut fuer Kohlenforschung]                               
  Daniel Aravena         : Magnetic Suceptibility                        
  Michael Atanasov       : Ab Initio Ligand Field Theory (pilot matlab implementation)
  Alexander A. Auer      : GIAO ZORA, VPT2 properties, NMR spectrum      
  Ute Becker             : All parallelization in ORCA, NUMFREQ, NUMCALC 
  Giovanni Bistoni       : ED, misc. LED, open-shell LED, HFLD           
  Dmytro Bykov           : pre 5.0 version of the SCF Hessian            
  Marcos Casanova-Páez   : Triplet and SCS-CIS(D). UHF-(DLPNO)-IP/EA/STEOM-CCSD. UHF-CVS-IP/STEOM-CCSD   
  Vijay G. Chilkuri      : MRCI spin determinant printing, contributions to CSF-ICE 
  Pauline Colinet        : FMM embedding                                 
  Dipayan Datta          : RHF DLPNO-CCSD density                        
  Achintya Kumar Dutta   : EOM-CC, STEOM-CC                              
  Nicolas Foglia         : Exact transition moments, OPA infrastructure, MCD improvements    
  Dmitry Ganyushin       : Spin-Orbit,Spin-Spin,Magnetic field MRCI      
  Miquel Garcia-Rates    : C-PCM and meta-GGA Hessian, CCSD/C-PCM, Gaussian charge scheme 
  Tiago L. C. Gouveia    : GS-ROHF, GS-ROCIS                             
  Yang Guo               : DLPNO-NEVPT2, F12-NEVPT2, CIM, IAO-localization        
  Andreas Hansen         : Spin unrestricted coupled pair/coupled cluster methods 
  Ingolf Harden          : AUTO-CI MPn and infrastructure                
  Benjamin Helmich-Paris : MC-RPA, TRAH-(SCF,CASSCF), AVAS, COSX integrals, SCF dyn. polar., MC-PDFT, srDFT 
  Lee Huntington         : MR-EOM, pCC                                   
  Robert Izsak           : Overlap fitted RIJCOSX, COSX-SCS-MP3, EOM     
  Riya Kayal             : Wick's Theorem for AUTO-CI, AUTO-CI UHF-CCSDT 
  Emily Kempfer          : AUTO-CI RHF CISDT and CCSDT, approximate NEVPT4
  Christian Kollmar      : KDIIS, OOCD, Brueckner-CCSD(T), CCSD density, CASPT2, CASPT2-K, improved NEVPT2 
  Axel Koslowski         : Symmetry handling                             
  Simone Kossmann        : meta-GGA functionals, TD-DFT gradient, OOMP2, (MP2 Hessian; deprecated post 5.0) 
  Lucas Lang             : DCDCAS, Hyperfine gauge corrections, ICE-SOC+SSC
  Marvin Lechner         : AUTO-CI (C++ implementation), FIC-MRCC        
  Spencer Leger          : CASSCF response                               
  Dagmar Lenk            : GEPOL surface, SMD, ORCA-2-JSON               
  Dimitrios Liakos       : Extrapolation schemes; Compound Job, Property file
  Dimitrios Manganas     : Further ROCIS development; embedding schemes. LFT, Crystal Embedding 
  Dimitrios Pantazis     : SARC Basis sets                               
  Anastasios Papadopoulos: AUTO-CI, single reference methods and gradients 
  Taras Petrenko         : pre 6.0 DFT Hessian and TD-DFT gradient,  ECA, NRVS 
  Petra Pikulova         : Analytic Raman intensities                    
  Peter Pinski           : DLPNO-MP2, DLPNO-MP2 Gradient                 
  Shashank Vittal Rao    : ES-AILFT, MagRelax                            
  Christoph Reimann      : Effective Core Potentials                     
  Marius Retegan         : Local ZFS, SOC                                
  Christoph Riplinger    : Optimizer, TS searches, QM/MM, DLPNO-CCSD(T), (RO)-DLPNO pert. Triples 
  Michael Roemelt        : Original ROCIS implementation, recursive CI coupling coefficients
  Masaaki Saitow         : Open-shell DLPNO-CCSD energy and density      
  Barbara Sandhoefer     : DKH picture change effects                    
  Yorick L. A. Schmerwitz: GMF and freeze-and-release deltaSCF, NEB S-IDPP initial path                    
  Kantharuban Sivalingam : CASSCF convergence/infrastructure, NEVPT2, NEVPT3, NEVPT4(SD), FIC-MRCI and CEPA variants
  Bernardo de Souza      : ESD, SOC TD-DFT                               
  Georgi L. Stoychev     : AutoAux, RI-MP2 NMR, DLPNO-MP2 response, X2C  
  Van Anh Tran           : RI-MP2 g-tensors                              
  Willem Van den Heuvel  : Paramagnetic NMR                              
  Zikuan Wang            : NOTCH, Electric field optimization            
  Frank Wennmohs         : Technical directorship and infrastructure     
  Hang Xu                : AUTO-CI-Response properties                   
                                                                         
[FACCTs GmbH]                                                            
  Markus Bursch, Nicolas Foglia, Miquel Garcia-Rates, Ingolf Harden, Hagen Neugebauer, Anastasios Papadopoulos, 
  Christoph Riplinger, Bernardo de Souza, Georgi L. Stoychev                                                    
                                                                 
  APM, various basis sets, CI-OPT, improved COSX, DLPNO-Multilevel,           
  DOCKER, DRACO, updates on ESD, Fragmentator, GOAT, IRC, LR-CPCM, L-BFGS, MBIS, meta-GGA TD-DFT gradient, ML-optimized integration grids, 
  MM, NACMEs, nearIR, NEB, NEB-TS, NL-DFT gradient (VV10), 2- and 3-layer-ONIOM, interface openCOSMO-RS, QMMM,   
  Crystal-QMMM, RESP, rigid body optimization, SF, symmetry and pop. for TD-DFT, various functionals, SOLVATOR                                   
                                                                         
[Other institutions]                                                     
  V. Asgeirsson          : NEB                                           
  Christoph Bannwarth    : sTDA-DFT, sTD-DFT, PBEh-3c, B97-3c, D3        
  Giovanni Bistoni       : ETS/NOCV, ADLD/ADEX, COVALED                  
  Martin Brehm           : Molecular dynamics                            
  Ronald Cardenas        : ETS/NOCV                                      
  Martina Colucci        : COVALED                                       
  Sebastian Ehlert       : rSCAN, r2SCAN, r2SCAN-3c, D4, dhf basis sets  
  Marvin Friede          : D4 for Fr, Ra, Ac-Lr                          
  Lars Goerigk           : TD-DFT with DH, B97 family of functionals     
  Stefan Grimme          : VdW corrections, initial TS optimization, DFT functionals, gCP, sTDA/sTD-DF 
  Waldemar Hujo          : DFT-NL                                        
  H. Jonsson             : NEB                                           
  Holger Kruse           : gCP                                           
  Marcel Mueller         : wB97X-3c, vDZP basis set                      
  Hagen Neugebauer       : wr2SCAN, Native XTB                           
  Gianluca Regni         : ADLD/ADEX                                     
  Tobias Risthaus        : pre 6.0 range-separated hybrid DFT and stability analysis
  Lukas Wittmann         : regularized MP2, r2SCAN double-hybrids, wr2SCAN        
                                                                         
We gratefully acknowledge several colleagues who have allowed us to      
interface, adapt or use parts of their codes:                            
  Ed Valeev, F. Pavosevic, A. Kumar             : LibInt (2-el integral package), F12 methods 
  Garnet Chan, S. Sharma, J. Yang, R. Olivares  : DMRG                   
  Ulf Ekstrom                                   : XCFun DFT Library      
  Mihaly Kallay                                 : mrcc  (arbitrary order and MRCC methods)
  Frank Weinhold                                : gennbo (NPA and NBO analysis)           
  Simon Mueller                                 : openCOSMO-RS                            
  Christopher J. Cramer and Donald G. Truhlar   : smd solvation model                     
  S Lehtola, MJT Oliveira, MAL Marques          : LibXC Library                           
  Liviu Ungur et al                             : ANISO software                          


 Your calculation uses the libint2 library for the computation of 2-el integrals
 For citations please refer to: http://libint.valeyev.net

 Your ORCA version has been built with support for libXC version: 7.0.0
 For citations please refer to: https://libxc.gitlab.io

 This ORCA versions uses:
   CBLAS   interface :  Fast vector & matrix operations
   LAPACKE interface :  Fast linear algebra routines
   SCALAPACK package :  Parallel linear algebra routines
   Shared memory     :  Shared parallel matrices
   BLAS/LAPACK       :  OpenBLAS 0.3.29  USE64BITINT DYNAMIC_ARCH NO_AFFINITY Zen SINGLE_THREADED
        Core in use  :  Zen
   Copyright (c) 2011-2014, The OpenBLAS Project


  ***********************************
  * Starting time: Tue Mar 10 20:25:26 2026
  * Host name:     a2-5
  * Process ID:    308115
  * Working dir.:  /tmp/lscratch/avcopan/43481938
  ***********************************

NOTE: MaxCore=9000 MB was set to SCF,MP2,MDCI,CIPSI,MRCI,RASCI and CIS
      => If you want to overwrite this, your respective input block should be placed after the MaxCore statement


***************************************
The coordinates will be read from file: opt.xyz
***************************************


================================================================================

----- Orbital basis set information -----
Your calculation utilizes the basis: cc-pVDZ-F12 

----- AuxC basis set information -----
Your calculation utilizes the auxiliary basis: cc-pVTZ/C 
  Obtained from the EMSL Basis Set Exchange (bse.pnl.gov) Feb. 2017
  H-He, B-F, Al-Ar, Ga-Kr : F. Weigend, A. Kohn, C. Hattig, J. Chem. Phys. 116, 3175 (2002)
             Li-Be, Na-Mg : C. Haettig, Phys. Chem. Chem. Phys. 7, 59 (2005)
                       Ne : C. Haettig, Phys. Chem. Chem. Phys. 7, 59 (2005)
                            F. Weigend, A. Kohn, C. Hattig, J. Chem. Phys. 116, 3175 (2002)
                    Sc-Zn : J. G. Hill, J. A. Platts, J. Chem. Phys. 128, 044104 (2008)

----- CABS information -----
Your calculation utilizes the basis: cc-pVDZ-F12 


                    <<< The CABS basis set will be decontracted >>>

================================================================================
                                        WARNINGS
                       Please study these warnings very carefully!
================================================================================


WARNING: Post HF methods need fully converged wavefunctions
  ===> : Setting SCFConvForced true
         You can overwrite this default with %scf ConvForced false 


WARNING: MDCI localization with Augmented Hessian Foster-Boys
  ===> : Switching off randomization!

WARNING: UseCISUpdate is  only available for RHF calculations...
  ===> : Setting UseCISUpdate = false 

================================================================================
                                       INPUT FILE
================================================================================
NAME = sp.inp
|  1> # 
|  2> % MaxCore 9000
|  3> ! PAL8
|  4> ! uhf ccsd(t)-f12/ri cc-pvdz-f12 cc-pvdz-f12-cabs cc-pvtz/c
|  5> * xyzfile 0 2 opt.xyz
|  6> 
|  7> 
|  8>                          ****END OF INPUT****
================================================================================

                       ****************************
                       * Single Point Calculation *
                       ****************************

---------------------------------
CARTESIAN COORDINATES (ANGSTROEM)
---------------------------------
  C      1.910843    1.410402   -0.031232
  C      0.699190    2.302088    0.312188
  C     -0.544189    1.438516    0.004464
  C     -0.003682    0.036693    0.030721
  C      1.343419    0.019851    0.065028
  H      2.269905    1.585607   -1.051855
  H      2.751043    1.560182    0.646702
  H      0.700825    3.243438   -0.237800
  H      0.718706    2.526384    1.377799
  H     -1.350649    1.590983    0.724632
  H     -0.957765    1.654820   -0.988270
  H     -0.629654   -0.846598   -0.001766
  H      1.951500   -0.870565   -0.013012
  O      1.191730   -0.010132    2.206722
  H      0.739114   -0.855929    2.327534

----------------------------
CARTESIAN COORDINATES (A.U.)
----------------------------
  NO LB      ZA    FRAG     MASS         X           Y           Z
   0 C     6.0000    0    12.011    3.610971    2.665273   -0.059020
   1 C     6.0000    0    12.011    1.321278    4.350315    0.589949
   2 C     6.0000    0    12.011   -1.028369    2.718401    0.008436
   3 C     6.0000    0    12.011   -0.006957    0.069339    0.058054
   4 C     6.0000    0    12.011    2.538694    0.037513    0.122885
   5 H     1.0000    0     1.008    4.289498    2.996363   -1.987717
   6 H     1.0000    0     1.008    5.198717    2.948317    1.222089
   7 H     1.0000    0     1.008    1.324368    6.129209   -0.449376
   8 H     1.0000    0     1.008    1.358158    4.774173    2.603662
   9 H     1.0000    0     1.008   -2.552356    3.006522    1.369356
  10 H     1.0000    0     1.008   -1.809913    3.127157   -1.867560
  11 H     1.0000    0     1.008   -1.189874   -1.599838   -0.003338
  12 H     1.0000    0     1.008    3.687800   -1.645130   -0.024589
  13 O     8.0000    0    15.999    2.252043   -0.019146    4.170101
  14 H     1.0000    0     1.008    1.396723   -1.617471    4.398402

--------------------------------
INTERNAL COORDINATES (ANGSTROEM)
--------------------------------
 C      0   0   0     0.000000000000     0.00000000     0.00000000
 C      1   0   0     1.543095696286     0.00000000     0.00000000
 C      2   1   0     1.544811492323   105.34518889     0.00000000
 C      3   2   1     1.502646640732   103.20929623    20.72051896
 C      4   3   2     1.347642479538   111.81818541   349.12174150
 H      1   2   3     1.096034651207   111.84534539    94.42587509
 H      1   2   3     1.089937210098   112.79644007   216.06510559
 H      2   1   3     1.090242389275   112.67424229   236.94045037
 H      2   1   3     1.089135846554   108.82498431   116.67965642
 H      3   2   1     1.091908665295   112.64523133   142.44001958
 H      3   2   1     1.096974585131   111.93106932   262.95379061
 H      4   3   2     1.083097068768   123.53112610   170.67773896
 H      5   4   3     1.081061445024   124.80003790   186.55862951
 O      5   4   3     2.147268886237    87.41801329    91.34613829
 H     14   5   4     0.966865804535    99.78269583    63.04987312

---------------------------
INTERNAL COORDINATES (A.U.)
---------------------------
 C      0   0   0     0.000000000000     0.00000000     0.00000000
 C      1   0   0     2.916028264413     0.00000000     0.00000000
 C      2   1   0     2.919270649025   105.34518889     0.00000000
 C      3   2   1     2.839590627041   103.20929623    20.72051896
 C      4   3   2     2.546675212766   111.81818541   349.12174150
 H      1   2   3     2.071205324069   111.84534539    94.42587509
 H      1   2   3     2.059682830255   112.79644007   216.06510559
 H      2   1   3     2.060259535321   112.67424229   236.94045037
 H      2   1   3     2.058168472623   108.82498431   116.67965642
 H      3   2   1     2.063408340662   112.64523133   142.44001958
 H      3   2   1     2.072981541769   111.93106932   262.95379061
 H      4   3   2     2.046756836425   123.53112610   170.67773896
 H      5   4   3     2.042910065036   124.80003790   186.55862951
 O      5   4   3     4.057750130879    87.41801329    91.34613829
 H     14   5   4     1.827111578825    99.78269583    63.04987312

---------------------
BASIS SET INFORMATION
---------------------
There are 3 groups of distinct atoms

 Group   1 Type C   : 19s6p2d contracted to 5s5p2d pattern {88111/21111/11}
 Group   2 Type H   : 5s2p contracted to 3s2p pattern {311/11}
 Group   3 Type O   : 19s6p2d contracted to 5s5p2d pattern {88111/21111/11}

Atom   0C    basis set group =>   1
Atom   1C    basis set group =>   1
Atom   2C    basis set group =>   1
Atom   3C    basis set group =>   1
Atom   4C    basis set group =>   1
Atom   5H    basis set group =>   2
Atom   6H    basis set group =>   2
Atom   7H    basis set group =>   2
Atom   8H    basis set group =>   2
Atom   9H    basis set group =>   2
Atom  10H    basis set group =>   2
Atom  11H    basis set group =>   2
Atom  12H    basis set group =>   2
Atom  13O    basis set group =>   3
Atom  14H    basis set group =>   2
---------------------------------
AUXILIARY/C BASIS SET INFORMATION
---------------------------------
There are 3 groups of distinct atoms

 Group   1 Type C   : 8s6p5d3f1g contracted to 8s6p5d3f1g pattern {11111111/111111/11111/111/1}
 Group   2 Type H   : 4s3p2d1f contracted to 4s3p2d1f pattern {1111/111/11/1}
 Group   3 Type O   : 8s6p5d3f1g contracted to 8s6p5d3f1g pattern {11111111/111111/11111/111/1}

Atom   0C    basis set group =>   1
Atom   1C    basis set group =>   1
Atom   2C    basis set group =>   1
Atom   3C    basis set group =>   1
Atom   4C    basis set group =>   1
Atom   5H    basis set group =>   2
Atom   6H    basis set group =>   2
Atom   7H    basis set group =>   2
Atom   8H    basis set group =>   2
Atom   9H    basis set group =>   2
Atom  10H    basis set group =>   2
Atom  11H    basis set group =>   2
Atom  12H    basis set group =>   2
Atom  13O    basis set group =>   3
Atom  14H    basis set group =>   2
--------------
CABS BASIS SET
--------------
There are 3 groups of distinct atoms

 Group   1 Type C   : 15s10p6d3f1g contracted to 15s10p6d3f1g pattern {111111111111111/1111111111/111111/111/1}
 Group   2 Type H   : 8s5p2d contracted to 8s5p2d pattern {11111111/11111/11}
 Group   3 Type O   : 15s10p6d3f1g contracted to 15s10p6d3f1g pattern {111111111111111/1111111111/111111/111/1}

Atom   0C    basis set group =>   1
Atom   1C    basis set group =>   1
Atom   2C    basis set group =>   1
Atom   3C    basis set group =>   1
Atom   4C    basis set group =>   1
Atom   5H    basis set group =>   2
Atom   6H    basis set group =>   2
Atom   7H    basis set group =>   2
Atom   8H    basis set group =>   2
Atom   9H    basis set group =>   2
Atom  10H    basis set group =>   2
Atom  11H    basis set group =>   2
Atom  12H    basis set group =>   2
Atom  13O    basis set group =>   3
Atom  14H    basis set group =>   2


           ************************************************************
           *        Program running with 8 parallel MPI-processes     *
           *              working on a common directory               *
           ************************************************************
------------------------------------------------------------------------------
                             ORCA STARTUP CALCULATIONS
------------------------------------------------------------------------------
------------------------------------------------------------------------------
                   ___                                                        
                  /   \      - P O W E R E D   B Y -                         
                 /     \                                                     
                 |  |  |   _    _      __       _____    __    __             
                 |  |  |  | |  | |    /  \     |  _  \  |  |  /  |          
                  \  \/   | |  | |   /    \    | | | |  |  | /  /          
                 / \  \   | |__| |  /  /\  \   | |_| |  |  |/  /          
                |  |  |   |  __  | /  /__\  \  |    /   |      \           
                |  |  |   | |  | | |   __   |  |    \   |  |\   \          
                \     /   | |  | | |  |  |  |  | |\  \  |  | \   \       
                 \___/    |_|  |_| |__|  |__|  |_| \__\ |__|  \__/        
                                                                              
                      - O R C A' S   B I G   F R I E N D -                    
                                      &                                       
                       - I N T E G R A L  F E E D E R -                       
                                                                              
 v1 FN, 2020, v2 2021, v3 2022-2024                                           
------------------------------------------------------------------------------


----------------------
SHARK INTEGRAL PACKAGE
----------------------

Number of atoms                             ...     15
Number of basis functions                   ...    297
Number of shells                            ...    153
Maximum angular momentum                    ...      2
Integral batch strategy                     ... SHARK/LIBINT Hybrid
RI-J (if used) integral strategy            ... SPLIT-RIJ (Revised 2003 algorithm where possible)
Printlevel                                  ...      1
Contraction scheme used                     ... PARTIAL GENERAL contraction
Prescreening option                         ... SCHWARTZ
   Thresh                                   ... 1.000e-10
   Tcut                                     ... 1.000e-11
   Tpresel                                  ... 1.000e-11 
Coulomb Range Separation                    ... NOT USED
Exchange Range Separation                   ... NOT USED
Multipole approximations                    ... NOT USED
Finite Nucleus Model                        ... NOT USED
CABS basis                                  ... AVAILABLE
   # of basis functions in CABS             ...    927
   # of shells in CABS                      ...    345
   Maximum angular momentum in CABS         ...      4
F12 Gamma exponent                          ...  0.900000
F12-Geminal                                 ...  6 primitives
l =0 ng=6 ofs=0
   a( 0) =     0.220850853  d( 0)=    -0.314424804 
   a( 1) =     1.004019154  d( 1)=    -0.303695753 
   a( 2) =     3.621217265  d( 2)=    -0.168069685 
   a( 3) =    12.162483048  d( 3)=    -0.098115813 
   a( 4) =    45.855331575  d( 4)=    -0.060246641 
   a( 5) =   254.234600970  d( 5)=    -0.037263542 
Auxiliary Coulomb fitting basis             ... NOT available
Auxiliary J/K fitting basis                 ... NOT available
Auxiliary Correlation fitting basis         ... AVAILABLE
   # of basis functions in Aux-C            ...    756
   # of shells in Aux-C                     ...    228
   Maximum angular momentum in Aux-C        ...      4
Auxiliary 'external' fitting basis          ... NOT available

Checking pre-screening integrals            ... done (  0.0 sec) Dimension = 153
Save PGC pre-screening integrals            ... done (  0.0 sec) Dimension = 153
Calculate PGC overlap integrals             ... done (  0.0 sec) Dimension = 117
Calculating pre-screening integrals (ORCA)  ... done (  0.1 sec) Dimension = 117
Shell pair information
Shell pair cut-off parameter TPreSel        ...   1.0e-11
Total number of shell pairs                 ...     11781
Shell pairs after pre-screening             ...     10200
Total number of primitive shell pairs       ...     15786
Primitive shell pairs kept                  ...     12528
          la=0 lb=0:   3392 shell pairs
          la=1 lb=0:   3963 shell pairs
          la=1 lb=1:   1124 shell pairs
          la=2 lb=0:   1073 shell pairs
          la=2 lb=1:    570 shell pairs
          la=2 lb=2:     78 shell pairs

Checking whether 4 symmetric matrices of dimension 297 fit in memory
:Max Core in MB      =   9000.00
 MB in use           =     66.22
 MB left             =   8933.78
 MB needed           =      1.35
 Data fit in memory  = YES
Calculating RI/C V-Matrix + Cholesky decomp.... done (  0.0 sec)
Calculating Nuclear repulsion               ... done (  0.0 sec) ENN=    240.714804038985 Eh

Diagonalization of the overlap matrix:
Smallest eigenvalue                        ... 5.989e-05
Time for diagonalization                   ...    0.008 sec
Threshold for overlap eigenvalues          ... 1.000e-07
Number of eigenvalues below threshold      ... 0
Time for construction of square roots      ...    0.005 sec
Total time needed                          ...    0.014 sec

-------------------
DFT GRID GENERATION
-------------------

General Integration Accuracy     IntAcc      ... 4.388
Radial Grid Type                 RadialGrid  ... OptM3 with GC (2021)
Angular Grid (max. ang.)         AngularGrid ... 4 (Lebedev-302)
Angular grid pruning method      GridPruning ... 4 (adaptive)
Weight generation scheme         WeightScheme... mBecke (2022)
Basis function cutoff            BFCut       ... 1.0000e-10
Integration weight cutoff        WCut        ... 1.0000e-14
Partially contracted basis set               ... off
Rotationally invariant grid construction     ... off
Angular grids for H and He will be reduced by one unit
Diffuse basis detected: some atoms will have their outermost
                        angular grid increased by 1.

Total number of grid points                  ...    66566
Total number of batches                      ...     1048
Average number of points per batch           ...       63
Average number of grid points per atom       ...     4438

---------------------
SHARK GRID GENERATION
---------------------

General Integration Accuracy     IntAcc      ... 4.388
Radial Grid Type                 RadialGrid  ... OptM3 with GC (2021)
Angular Grid (max. ang.)         AngularGrid ... 4 (Lebedev-302)
Angular grid pruning method      GridPruning ... 4 (adaptive)
Weight generation scheme         WeightScheme... mBecke (2022)
Basis function cutoff            BFCut       ... 1.0000e-10
Integration weight cutoff        WCut        ... 1.0000e-14
Partially contracted basis set               ... off
Rotationally invariant grid construction     ... off
Angular grids for H and He will be reduced by one unit
Diffuse basis detected: some atoms will have their outermost
                        angular grid increased by 1.
Steep s-basis detected: some atoms will have their radial
                        grid points doubled.

Total number of grid points                  ...   104411
Total number of batches                      ...     1641
Average number of points per batch           ...       63
Average number of grid points per atom       ...     6961
Grids setup in   1.1 sec
Initializing property integral containers    ... done (  0.0 sec)

SHARK setup successfully completed in   2.0 seconds

Maximum memory used throughout the entire STARTUP-calculation: 87.8 MB


           ************************************************************
           *        Program running with 8 parallel MPI-processes     *
           *              working on a common directory               *
           ************************************************************
-------------------------------------------------------------------------------
                                 ORCA GUESS
                   Start orbitals & Density for SCF / CASSCF
-------------------------------------------------------------------------------

------------
SCF SETTINGS
------------
Hamiltonian:
 Ab initio Hamiltonian  Method          .... Hartree-Fock(GTOs)


General Settings:
 Integral files         IntName         .... sp
 Hartree-Fock type      HFTyp           .... UHF
 Total Charge           Charge          ....    0
 Multiplicity           Mult            ....    2
 Number of Electrons    NEL             ....   47
 Basis Dimension        Dim             ....  261
 Nuclear Repulsion      ENuc            ....    240.7148040390 Eh

Convergence Acceleration:
 AO-DIIS                CNVDIIS         .... on
   Start iteration      DIISMaxIt       ....    12
   Startup error        DIISStart       ....  0.200000
   # of expansion vecs  DIISMaxEq       ....     5
   Bias factor          DIISBfac        ....   1.050
   Max. coefficient     DIISMaxC        ....  10.000
 MO-DIIS                CNVKDIIS        .... off
 Trust-Rad. Augm. Hess. CNVTRAH         .... auto
   Auto Start mean grad. ratio tolernc. ....  1.125000
   Auto Start start iteration           ....    50
   Auto Start num. interpolation iter.  ....    10
   Max. Number of Micro iterations      ....    24
   Max. Number of Macro iterations      .... Maxiter - #DIIS iter
   Number of Davidson start vectors     ....     2
   Converg. threshold    (grad. norm)   ....   5.000e-05
   Grad. Scal. Fac. for Micro threshold ....   0.100
   Minimum threshold for Micro iter.    ....   1.000e-02
   NR start threshold (gradient norm)   ....   1.000e-04
   Initial trust radius                 ....   0.400
   Minimum AH scaling param. (alpha)    ....   1.000
   Maximum AH scaling param. (alpha)    .... 1000.000
   Quad. conv. algorithm                .... NR
   White noise on init. David. guess    .... on
   Maximum white noise                  ....   0.010
   Pseudo random numbers                .... off
   Inactive MOs                         .... canonical
   Orbital update algorithm             .... Taylor
   Preconditioner                       .... Diag
   Full preconditioner red. dimension   ....   250
 SOSCF                 CNVSOSCF           .... on
   Start iteration     SOSCFMaxIt         ....   150
   Startup grad/error  SOSCFStart         ....  0.003300
   Hessian update      SOSCFHessUp        .... L-BFGS
   Autom. constraints  SOSCFAutoConstrain .... off
 Level Shifting         CNVShift        .... on
   Level shift para.    LevelShift      ....    0.2500
   Turn off err/grad.   ShiftErr        ....    0.0010
 Zerner damping         CNVZerner       .... off
 Static damping         CNVDamp         .... on
   Fraction old density DampFac         ....    0.7000
   Max. Damping (<1)    DampMax         ....    0.9800
   Min. Damping (>=0)   DampMin         ....    0.0000
   Turn off err/grad.   DampErr         ....    0.1000

SCF Procedure:
 Maximum # iterations   MaxIter         ....   125
 SCF integral mode      SCFMode         .... Direct
   Integral package                     .... SHARK and LIBINT hybrid scheme
 Reset frequency        DirectResetFreq ....    20
 Integral Threshold     Thresh          ....  1.000e-10 Eh
 Primitive CutOff       TCut            ....  1.000e-11 Eh

Convergence Tolerance:
 Convergence Check Mode ConvCheckMode   .... Total+1el-Energy
 Convergence forced     ConvForced      .... 1
 Energy Change          TolE            ....  1.000e-06 Eh
 1-El. energy change                    ....  1.000e-03 Eh
 Orbital Gradient       TolG            ....  5.000e-05
 Orbital Rotation angle TolX            ....  5.000e-05
 DIIS Error             TolErr          ....  1.000e-06

------------------------------
INITIAL GUESS: MODEL POTENTIAL
------------------------------
Loading Hartree-Fock densities                     ... done
Calculating cut-offs                               ... done
Initializing the effective Hamiltonian             ... done
Setting up the integral package (SHARK)            ... done
Starting the Coulomb interaction                   ... done (   0.0 sec)
Making the grid                                    ... done (   0.1 sec)
Mapping shells                                     ... done
Starting the XC term evaluation                    ... done (   0.0 sec)
Transforming the Hamiltonian                       ... done (   0.0 sec)
Diagonalizing the Hamiltonian                      ... done (   0.0 sec)
Back transforming the eigenvectors                 ... done (   0.0 sec)
Now organizing SCF variables                       ... done
                      ------------------
                      INITIAL GUESS DONE (   0.2 sec)
                      ------------------
             **** ENERGY FILE WAS UPDATED (sp.en.tmp) ****
Finished Guess after   2.8 sec
Maximum memory used throughout the entire GUESS-calculation: 18.2 MB


           ************************************************************
           *        Program running with 8 parallel MPI-processes     *
           *              working on a common directory               *
           ************************************************************

-------------------------------------------------------------------------------------------
                                      ORCA LEAN-SCF
                              memory conserving SCF solver
-------------------------------------------------------------------------------------------

----------------------------------------D-I-I-S--------------------------------------------
Iteration    Energy (Eh)           Delta-E    RMSDP     MaxDP     DIISErr   Damp  Time(sec)
-------------------------------------------------------------------------------------------
               ***  Starting incremental Fock matrix formation  ***
    1    -269.0604396893726289     0.00e+00  1.92e-03  1.98e-02  1.85e-01  0.700   2.6
    2    -269.1867283711904975    -1.26e-01  1.52e-03  1.62e-02  1.06e-01  0.700   2.4
                               ***Turning on AO-DIIS***
    3    -269.2594014110238732    -7.27e-02  8.43e-04  7.89e-03  6.32e-02  0.700   2.6
    4    -269.3061210620824113    -4.67e-02  2.08e-03  2.41e-02  5.02e-02  0.000   2.3
    5    -269.4194252652331443    -1.13e-01  5.52e-04  1.07e-02  2.72e-02  0.000   2.4
    6    -269.4245488290447383    -5.12e-03  5.81e-04  9.03e-03  2.22e-02  0.000   2.3
    7    -269.4288760638110034    -4.33e-03  7.25e-04  1.17e-02  2.18e-02  0.000   2.2
    8    -269.4336492173771376    -4.77e-03  8.00e-04  1.40e-02  1.75e-02  0.000   2.4
    9    -269.4375299332180020    -3.88e-03  5.16e-04  1.01e-02  1.22e-02  0.000   3.2
   10    -269.4392310563587216    -1.70e-03  4.13e-04  7.99e-03  6.81e-03  0.000   3.0
   11    -269.4399596699835229    -7.29e-04  1.77e-04  3.19e-03  3.51e-03  0.000   2.9
                              *** Initializing SOSCF ***
---------------------------------------S-O-S-C-F--------------------------------------
Iteration    Energy (Eh)           Delta-E    RMSDP     MaxDP     MaxGrad    Time(sec)
--------------------------------------------------------------------------------------
   12    -269.4401377203926131    -1.78e-04  1.27e-04  2.22e-03  1.60e-03     2.9
               *** Restarting incremental Fock matrix formation ***
   13    -269.4402078757824484    -7.02e-05  5.92e-05  1.02e-03  1.06e-03     3.3
   14    -269.4402301837619689    -2.23e-05  1.64e-04  2.81e-03  7.60e-04     2.6
   15    -269.4402676332548481    -3.74e-05  5.77e-05  1.31e-03  4.85e-04     2.8
   16    -269.4402801980464801    -1.26e-05  7.77e-05  1.60e-03  4.36e-04     2.7
   17    -269.4402910525932384    -1.09e-05  3.47e-05  7.59e-04  2.24e-04     2.7
   18    -269.4402946509707135    -3.60e-06  4.01e-05  7.99e-04  1.92e-04     2.6
   19    -269.4402982926724235    -3.64e-06  2.45e-05  5.95e-04  1.45e-04     2.6
   20    -269.4403002369547266    -1.94e-06  2.09e-05  4.75e-04  1.12e-04     2.5
   21    -269.4403014899487516    -1.25e-06  1.37e-05  2.43e-04  7.71e-05     2.5
   22    -269.4403021144206605    -6.24e-07  9.32e-06  1.22e-04  5.70e-05     2.4
                 **** Energy Check signals convergence ****

               *****************************************************
               *                     SUCCESS                       *
               *           SCF CONVERGED AFTER  22 CYCLES          *
               *****************************************************

             **** ENERGY FILE WAS UPDATED (sp.en.tmp) ****

----------------
TOTAL SCF ENERGY
----------------

Total Energy       :       -269.44030242534404 Eh           -7331.84337 eV

Components:
Nuclear Repulsion  :        240.71480403898457 Eh            6550.18282 eV
Electronic Energy  :       -510.15510646432858 Eh          -13882.02620 eV
One Electron Energy:       -843.03984318493826 Eh          -22940.28039 eV
Two Electron Energy:        332.88473672060968 Eh            9058.25420 eV

Virial components:
Potential Energy   :       -538.71396232674238 Eh          -14659.15217 eV
Kinetic Energy     :        269.27365990139839 Eh            7327.30880 eV
Virial Ratio       :          2.00061885935671

---------------
SCF CONVERGENCE
---------------

  Last Energy change         ...    6.2447e-07  Tolerance :   1.0000e-06
  Last MAX-Density change    ...    1.2228e-04  Tolerance :   1.0000e-05
  Last RMS-Density change    ...    9.3195e-06  Tolerance :   1.0000e-06
  Last DIIS Error            ...    1.6017e-03  Tolerance :   1.0000e-06
  Last Orbital Gradient      ...    5.7027e-05  Tolerance :   5.0000e-05
  Last Orbital Rotation      ...    2.9405e-04  Tolerance :   5.0000e-05


----------------------
UHF SPIN CONTAMINATION
----------------------

Expectation value of <S**2>     :     0.917275
Ideal value S*(S+1) for S=0.5   :     0.750000
Deviation                       :     0.167275

----------------
ORBITAL ENERGIES
----------------
                 SPIN UP ORBITALS
  NO   OCC          E(Eh)            E(eV) 
   0   1.0000     -20.600519      -560.5686 
   1   1.0000     -11.229186      -305.5617 
   2   1.0000     -11.222540      -305.3808 
   3   1.0000     -11.218490      -305.2706 
   4   1.0000     -11.217510      -305.2440 
   5   1.0000     -11.212795      -305.1157 
   6   1.0000      -1.358167       -36.9576 
   7   1.0000      -1.131883       -30.8001 
   8   1.0000      -0.968202       -26.3461 
   9   1.0000      -0.954111       -25.9627 
  10   1.0000      -0.784918       -21.3587 
  11   1.0000      -0.730689       -19.8831 
  12   1.0000      -0.677985       -18.4489 
  13   1.0000      -0.665190       -18.1007 
  14   1.0000      -0.633760       -17.2455 
  15   1.0000      -0.608860       -16.5679 
  16   1.0000      -0.552755       -15.0412 
  17   1.0000      -0.533998       -14.5308 
  18   1.0000      -0.521660       -14.1951 
  19   1.0000      -0.492588       -13.4040 
  20   1.0000      -0.485517       -13.2116 
  21   1.0000      -0.478882       -13.0310 
  22   1.0000      -0.471685       -12.8352 
  23   1.0000      -0.338383        -9.2079 
  24   0.0000       0.056074         1.5258 
  25   0.0000       0.060286         1.6405 
  26   0.0000       0.064220         1.7475 
  27   0.0000       0.070806         1.9267 
  28   0.0000       0.077736         2.1153 
  29   0.0000       0.085038         2.3140 
  30   0.0000       0.105957         2.8832 
  31   0.0000       0.106164         2.8889 
  32   0.0000       0.119471         3.2510 
  33   0.0000       0.130167         3.5420 
  34   0.0000       0.136946         3.7265 

                 SPIN DOWN ORBITALS
  NO   OCC          E(Eh)            E(eV) 
   0   1.0000     -20.562079      -559.5226 
   1   1.0000     -11.238043      -305.8027 
   2   1.0000     -11.219191      -305.2897 
   3   1.0000     -11.217339      -305.2393 
   4   1.0000     -11.212772      -305.1150 
   5   1.0000     -11.208826      -305.0077 
   6   1.0000      -1.220773       -33.2189 
   7   1.0000      -1.123591       -30.5745 
   8   1.0000      -0.964233       -26.2381 
   9   1.0000      -0.949882       -25.8476 
  10   1.0000      -0.783125       -21.3099 
  11   1.0000      -0.724668       -19.7192 
  12   1.0000      -0.674312       -18.3490 
  13   1.0000      -0.644196       -17.5295 
  14   1.0000      -0.600490       -16.3402 
  15   1.0000      -0.548311       -14.9203 
  16   1.0000      -0.531087       -14.4516 
  17   1.0000      -0.492960       -13.4141 
  18   1.0000      -0.485826       -13.2200 
  19   1.0000      -0.483281       -13.1507 
  20   1.0000      -0.471910       -12.8413 
  21   1.0000      -0.470452       -12.8017 
  22   1.0000      -0.352750        -9.5988 
  23   0.0000       0.056617         1.5406 
  24   0.0000       0.060294         1.6407 
  25   0.0000       0.064275         1.7490 
  26   0.0000       0.065933         1.7941 
  27   0.0000       0.077637         2.1126 
  28   0.0000       0.077851         2.1184 
  29   0.0000       0.100527         2.7355 
  30   0.0000       0.106247         2.8911 
  31   0.0000       0.117482         3.1968 
  32   0.0000       0.130428         3.5491 
  33   0.0000       0.135264         3.6807 
*Only the first 10 virtual orbitals were printed.

                    ********************************
                    * MULLIKEN POPULATION ANALYSIS *
                    ********************************

--------------------------------------------
MULLIKEN ATOMIC CHARGES AND SPIN POPULATIONS
--------------------------------------------
   0 C :   -0.185944    0.064412
   1 C :   -0.223062    0.004199
   2 C :   -0.155074   -0.097314
   3 C :   -0.232950    0.709863
   4 C :   -0.029612   -0.533731
   5 H :    0.112877   -0.022880
   6 H :    0.113876   -0.011457
   7 H :    0.118704   -0.000598
   8 H :    0.113818    0.000450
   9 H :    0.100662    0.019150
  10 H :    0.104097    0.030572
  11 H :    0.130214   -0.061843
  12 H :    0.122884    0.045917
  13 O :   -0.334125    0.910739
  14 H :    0.243635   -0.057481
Sum of atomic charges         :   -0.0000000
Sum of atomic spin populations:    1.0000000

-----------------------------------------------------
MULLIKEN REDUCED ORBITAL CHARGES AND SPIN POPULATIONS
-----------------------------------------------------
CHARGE
  0 C s       :     2.989839  s :     2.989839
      pz      :     1.084441  p :     3.090964
      px      :     1.073107
      py      :     0.933416
      dz2     :     0.022146  d :     0.105140
      dxz     :     0.024592
      dyz     :     0.014366
      dx2y2   :     0.024036
      dxy     :     0.020000

  1 C s       :     3.041392  s :     3.041392
      pz      :     1.079937  p :     3.076214
      px      :     0.939245
      py      :     1.057032
      dz2     :     0.024954  d :     0.105456
      dxz     :     0.015340
      dyz     :     0.015852
      dx2y2   :     0.026151
      dxy     :     0.023159

  2 C s       :     2.977095  s :     2.977095
      pz      :     1.068199  p :     3.070894
      px      :     1.065830
      py      :     0.936865
      dz2     :     0.019354  d :     0.107085
      dxz     :     0.027739
      dyz     :     0.017669
      dx2y2   :     0.023639
      dxy     :     0.018685

  3 C s       :     3.159621  s :     3.159621
      pz      :     0.963447  p :     2.996126
      px      :     0.996079
      py      :     1.036600
      dz2     :     0.006539  d :     0.077203
      dxz     :     0.019818
      dyz     :     0.006666
      dx2y2   :     0.018681
      dxy     :     0.025499

  4 C s       :     3.014779  s :     3.014779
      pz      :     0.879828  p :     2.917428
      px      :     0.990455
      py      :     1.047145
      dz2     :     0.015046  d :     0.097405
      dxz     :     0.027517
      dyz     :     0.008485
      dx2y2   :     0.019361
      dxy     :     0.026995

  5 H s       :     0.854251  s :     0.854251
      pz      :     0.015328  p :     0.032872
      px      :     0.009600
      py      :     0.007944

  6 H s       :     0.851272  s :     0.851272
      pz      :     0.008773  p :     0.034852
      px      :     0.018382
      py      :     0.007697

  7 H s       :     0.848230  s :     0.848230
      pz      :     0.007132  p :     0.033066
      px      :     0.007406
      py      :     0.018528

  8 H s       :     0.853967  s :     0.853967
      pz      :     0.017945  p :     0.032216
      px      :     0.006696
      py      :     0.007574

  9 H s       :     0.864878  s :     0.864878
      pz      :     0.008861  p :     0.034459
      px      :     0.017411
      py      :     0.008188

 10 H s       :     0.863009  s :     0.863009
      pz      :     0.014817  p :     0.032894
      px      :     0.010269
      py      :     0.007808

 11 H s       :     0.835856  s :     0.835856
      pz      :     0.014406  p :     0.033930
      px      :     0.006072
      py      :     0.013451

 12 H s       :     0.841747  s :     0.841747
      pz      :     0.010722  p :     0.035369
      px      :     0.007052
      py      :     0.017595

 13 O s       :     3.888781  s :     3.888781
      pz      :     1.116712  p :     4.428355
      px      :     1.805298
      py      :     1.506344
      dz2     :     0.006477  d :     0.016989
      dxz     :     0.001249
      dyz     :     0.001443
      dx2y2   :     0.003099
      dxy     :     0.004721

 14 H s       :     0.692305  s :     0.692305
      pz      :     0.015974  p :     0.064061
      px      :     0.028889
      py      :     0.019197


SPIN
  0 C s       :     0.019568  s :     0.019568
      pz      :     0.016614  p :     0.051499
      px      :     0.008567
      py      :     0.026318
      dz2     :    -0.000558  d :    -0.006655
      dxz     :    -0.000970
      dyz     :    -0.004731
      dx2y2   :    -0.000073
      dxy     :    -0.000324

  1 C s       :     0.002809  s :     0.002809
      pz      :     0.001128  p :     0.001706
      px      :     0.000486
      py      :     0.000092
      dz2     :    -0.000012  d :    -0.000316
      dxz     :    -0.000072
      dyz     :    -0.000198
      dx2y2   :     0.000068
      dxy     :    -0.000102

  2 C s       :    -0.028842  s :    -0.028842
      pz      :    -0.027746  p :    -0.077677
      px      :    -0.012227
      py      :    -0.037704
      dz2     :     0.000057  d :     0.009205
      dxz     :     0.001990
      dyz     :     0.006667
      dx2y2   :     0.000199
      dxy     :     0.000292

  3 C s       :     0.078235  s :     0.078235
      pz      :     0.502850  p :     0.635188
      px      :     0.066771
      py      :     0.065567
      dz2     :    -0.003248  d :    -0.003560
      dxz     :    -0.004861
      dyz     :     0.000401
      dx2y2   :     0.001220
      dxy     :     0.002929

  4 C s       :    -0.072751  s :    -0.072751
      pz      :    -0.365335  p :    -0.470049
      px      :    -0.055066
      py      :    -0.049648
      dz2     :     0.005514  d :     0.009069
      dxz     :     0.005894
      dyz     :    -0.000441
      dx2y2   :    -0.000225
      dxy     :    -0.001673

  5 H s       :    -0.023695  s :    -0.023695
      pz      :     0.000062  p :     0.000815
      px      :     0.000280
      py      :     0.000473

  6 H s       :    -0.012078  s :    -0.012078
      pz      :     0.000061  p :     0.000622
      px      :     0.000249
      py      :     0.000312

  7 H s       :    -0.000640  s :    -0.000640
      pz      :    -0.000002  p :     0.000042
      px      :     0.000015
      py      :     0.000028

  8 H s       :     0.000477  s :     0.000477
      pz      :    -0.000011  p :    -0.000027
      px      :     0.000006
      py      :    -0.000021

  9 H s       :     0.019899  s :     0.019899
      pz      :    -0.000109  p :    -0.000749
      px      :    -0.000321
      py      :    -0.000319

 10 H s       :     0.031435  s :     0.031435
      pz      :     0.000096  p :    -0.000862
      px      :    -0.000282
      py      :    -0.000677

 11 H s       :    -0.069161  s :    -0.069161
      pz      :     0.007051  p :     0.007318
      px      :     0.000061
      py      :     0.000206

 12 H s       :     0.050673  s :     0.050673
      pz      :    -0.004710  p :    -0.004756
      px      :     0.000260
      py      :    -0.000307

 13 O s       :     0.008945  s :     0.008945
      pz      :     0.831769  p :     0.901861
      px      :     0.035015
      py      :     0.035078
      dz2     :    -0.001681  d :    -0.000067
      dxz     :     0.000007
      dyz     :     0.000539
      dx2y2   :     0.000346
      dxy     :     0.000722

 14 H s       :    -0.055744  s :    -0.055744
      pz      :     0.002786  p :    -0.001737
      px      :    -0.002921
      py      :    -0.001603



                     *******************************
                     * LOEWDIN POPULATION ANALYSIS *
                     *******************************

-------------------------------------------
LOEWDIN ATOMIC CHARGES AND SPIN POPULATIONS
-------------------------------------------
   0 C :   -0.017363   -0.007332
   1 C :    0.000408   -0.001157
   2 C :   -0.022829    0.009995
   3 C :   -0.021497    0.381556
   4 C :   -0.009085   -0.221155
   5 H :    0.019623   -0.011705
   6 H :    0.025800   -0.004748
   7 H :    0.009288   -0.000215
   8 H :    0.023930   -0.000314
   9 H :    0.017717    0.008443
  10 H :    0.017446    0.016563
  11 H :    0.006971    0.019398
  12 H :    0.021661   -0.014848
  13 O :    0.012315    0.822815
  14 H :   -0.084385    0.002704

----------------------------------------------------
LOEWDIN REDUCED ORBITAL CHARGES AND SPIN POPULATIONS
----------------------------------------------------
CHARGE
  0 C s       :     2.679063  s :     2.679063
      pz      :     1.009438  p :     2.928845
      px      :     0.978720
      py      :     0.940687
      dz2     :     0.072848  d :     0.409455
      dxz     :     0.092259
      dyz     :     0.053510
      dx2y2   :     0.099750
      dxy     :     0.091088

  1 C s       :     2.684823  s :     2.684823
      pz      :     1.013115  p :     2.917970
      px      :     0.926413
      py      :     0.978443
      dz2     :     0.085610  d :     0.396799
      dxz     :     0.056465
      dyz     :     0.065597
      dx2y2   :     0.100507
      dxy     :     0.088620

  2 C s       :     2.680124  s :     2.680124
      pz      :     1.004863  p :     2.927336
      px      :     0.975329
      py      :     0.947144
      dz2     :     0.063650  d :     0.415369
      dxz     :     0.101823
      dyz     :     0.060828
      dx2y2   :     0.098474
      dxy     :     0.090594

  3 C s       :     2.728080  s :     2.728080
      pz      :     0.839441  p :     2.877097
      px      :     1.048652
      py      :     0.989004
      dz2     :     0.036950  d :     0.416320
      dxz     :     0.060018
      dyz     :     0.037620
      dx2y2   :     0.118546
      dxy     :     0.163187

  4 C s       :     2.728793  s :     2.728793
      pz      :     0.762589  p :     2.821340
      px      :     1.059925
      py      :     0.998826
      dz2     :     0.067116  d :     0.458952
      dxz     :     0.072713
      dyz     :     0.040063
      dx2y2   :     0.118166
      dxy     :     0.160895

  5 H s       :     0.791744  s :     0.791744
      pz      :     0.087657  p :     0.188633
      px      :     0.052003
      py      :     0.048973

  6 H s       :     0.787919  s :     0.787919
      pz      :     0.066003  p :     0.186281
      px      :     0.072681
      py      :     0.047597

  7 H s       :     0.802261  s :     0.802261
      pz      :     0.060135  p :     0.188451
      px      :     0.048338
      py      :     0.079978

  8 H s       :     0.785723  s :     0.785723
      pz      :     0.094044  p :     0.190347
      px      :     0.046686
      py      :     0.049618

  9 H s       :     0.794787  s :     0.794787
      pz      :     0.068385  p :     0.187496
      px      :     0.070445
      py      :     0.048666

 10 H s       :     0.792954  s :     0.792954
      pz      :     0.086052  p :     0.189599
      px      :     0.053398
      py      :     0.050149

 11 H s       :     0.798825  s :     0.798825
      pz      :     0.057877  p :     0.194205
      px      :     0.057574
      py      :     0.078753

 12 H s       :     0.790430  s :     0.790430
      pz      :     0.049437  p :     0.187908
      px      :     0.057881
      py      :     0.080590

 13 O s       :     3.509630  s :     3.509630
      pz      :     1.114229  p :     4.442554
      px      :     1.754371
      py      :     1.573954
      dz2     :     0.016176  d :     0.035502
      dxz     :     0.002208
      dyz     :     0.001899
      dx2y2   :     0.005022
      dxy     :     0.010197

 14 H s       :     0.684027  s :     0.684027
      pz      :     0.066842  p :     0.400358
      px      :     0.142900
      py      :     0.190616


SPIN
  0 C s       :     0.002279  s :     0.002279
      pz      :     0.004406  p :     0.017851
      px      :     0.002847
      py      :     0.010599
      dz2     :    -0.002272  d :    -0.027462
      dxz     :    -0.006075
      dyz     :    -0.016101
      dx2y2   :    -0.001373
      dxy     :    -0.001641

  1 C s       :    -0.000179  s :    -0.000179
      pz      :    -0.000079  p :    -0.000100
      px      :     0.000260
      py      :    -0.000281
      dz2     :    -0.000107  d :    -0.000878
      dxz     :    -0.000086
      dyz     :    -0.000331
      dx2y2   :    -0.000171
      dxy     :    -0.000183

  2 C s       :    -0.003838  s :    -0.003838
      pz      :    -0.006044  p :    -0.025610
      px      :    -0.004476
      py      :    -0.015091
      dz2     :     0.001438  d :     0.039443
      dxz     :     0.009997
      dyz     :     0.023999
      dx2y2   :     0.002133
      dxy     :     0.001875

  3 C s       :     0.020267  s :     0.020267
      pz      :     0.358450  p :     0.393944
      px      :     0.019499
      py      :     0.015995
      dz2     :    -0.001632  d :    -0.032655
      dxz     :    -0.025639
      dyz     :     0.000683
      dx2y2   :    -0.003027
      dxy     :    -0.003040

  4 C s       :    -0.011431  s :    -0.011431
      pz      :    -0.236394  p :    -0.265246
      px      :    -0.017337
      py      :    -0.011515
      dz2     :     0.019515  d :     0.055522
      dxz     :     0.030260
      dyz     :    -0.000888
      dx2y2   :     0.003857
      dxy     :     0.002778

  5 H s       :    -0.010874  s :    -0.010874
      pz      :    -0.000319  p :    -0.000831
      px      :    -0.000013
      py      :    -0.000499

  6 H s       :    -0.005544  s :    -0.005544
      pz      :     0.000022  p :     0.000796
      px      :     0.000255
      py      :     0.000518

  7 H s       :    -0.000176  s :    -0.000176
      pz      :    -0.000049  p :    -0.000039
      px      :     0.000017
      py      :    -0.000008

  8 H s       :    -0.000157  s :    -0.000157
      pz      :    -0.000087  p :    -0.000157
      px      :     0.000023
      py      :    -0.000092

  9 H s       :     0.009144  s :     0.009144
      pz      :     0.000112  p :    -0.000701
      px      :    -0.000269
      py      :    -0.000545

 10 H s       :     0.015829  s :     0.015829
      pz      :     0.000279  p :     0.000733
      px      :     0.000032
      py      :     0.000423

 11 H s       :    -0.018192  s :    -0.018192
      pz      :     0.031608  p :     0.037590
      px      :     0.002379
      py      :     0.003603

 12 H s       :     0.012964  s :     0.012964
      pz      :    -0.023196  p :    -0.027812
      px      :    -0.002040
      py      :    -0.002576

 13 O s       :     0.020160  s :     0.020160
      pz      :     0.755434  p :     0.806506
      px      :     0.034501
      py      :     0.016571
      dz2     :    -0.003653  d :    -0.003851
      dxz     :     0.000641
      dyz     :    -0.000014
      dx2y2   :    -0.000187
      dxy     :    -0.000637

 14 H s       :    -0.027532  s :    -0.027532
      pz      :     0.031492  p :     0.030236
      px      :    -0.003178
      py      :     0.001921



                      *****************************
                      * MAYER POPULATION ANALYSIS *
                      *****************************

  NA   - Mulliken gross atomic population
  ZA   - Total nuclear charge
  QA   - Mulliken gross atomic charge
  VA   - Mayer's total valence
  BVA  - Mayer's bonded valence
  FA   - Mayer's free valence

  ATOM       NA         ZA         QA         VA         BVA        FA
  0 C      6.1859     6.0000    -0.1859     4.2233     4.2214     0.0019
  1 C      6.2231     6.0000    -0.2231     4.2237     4.2237     0.0000
  2 C      6.1551     6.0000    -0.1551     4.2340     4.2302     0.0038
  3 C      6.2330     6.0000    -0.2330     4.0923     3.8185     0.2738
  4 C      6.0296     6.0000    -0.0296     4.0712     3.9155     0.1556
  5 H      0.8871     1.0000     0.1129     0.9983     0.9977     0.0006
  6 H      0.8861     1.0000     0.1139     1.0119     1.0117     0.0002
  7 H      0.8813     1.0000     0.1187     0.9905     0.9905     0.0000
  8 H      0.8862     1.0000     0.1138     1.0055     1.0055     0.0000
  9 H      0.8993     1.0000     0.1007     1.0101     1.0097     0.0004
 10 H      0.8959     1.0000     0.1041     1.0029     1.0018     0.0011
 11 H      0.8698     1.0000     0.1302     0.9874     0.9825     0.0049
 12 H      0.8771     1.0000     0.1229     0.9968     0.9941     0.0027
 13 O      8.3341     8.0000    -0.3341     1.8551     1.0991     0.7559
 14 H      0.7564     1.0000     0.2436     0.9764     0.9724     0.0040

  Mayer bond orders larger than 0.100000
B(  0-C ,  1-C ) :   1.0763 B(  0-C ,  4-C ) :   1.0795 B(  0-C ,  5-H ) :   0.9532 
B(  0-C ,  6-H ) :   0.9629 B(  1-C ,  2-C ) :   1.1088 B(  1-C ,  7-H ) :   0.9633 
B(  1-C ,  8-H ) :   0.9857 B(  2-C ,  3-C ) :   1.0888 B(  2-C ,  9-H ) :   0.9530 
B(  2-C , 10-H ) :   0.9630 B(  3-C ,  4-C ) :   1.6391 B(  3-C , 11-H ) :   0.9599 
B(  4-C , 12-H ) :   0.9515 B(  4-C , 13-O ) :   0.1510 B( 13-O , 14-H ) :   0.9328 


-------
TIMINGS
-------

Total SCF time: 0 days 0 hours 1 min 3 sec 

Total time                  ....      63.010 sec
Sum of individual times     ....      60.522 sec  ( 96.1%)

SCF preparation             ....       2.595 sec  (  4.1%)
Fock matrix formation       ....      56.411 sec  ( 89.5%)
  Startup                   ....       0.024 sec  (  0.0% of F)
  Coulomb+Exchange Fock     ....      58.553 sec  (103.8% of F)
Diagonalization             ....       0.000 sec  (  0.0%)
Density matrix formation    ....       0.215 sec  (  0.3%)
Total Energy calculation    ....       0.089 sec  (  0.1%)
Population analysis         ....       0.042 sec  (  0.1%)
Orbital Transformation      ....       0.088 sec  (  0.1%)
Orbital Orthonormalization  ....       0.000 sec  (  0.0%)
DIIS solution               ....       0.634 sec  (  1.0%)
SOSCF solution              ....       0.442 sec  (  0.7%)
Finished LeanSCF after  63.0 sec

Maximum memory used throughout the entire LEANSCF-calculation: 21.3 MB


           ************************************************************
           *        Program running with 8 parallel MPI-processes     *
           *              working on a common directory               *
           ************************************************************

------------------------------------------------------------------------------
                         ORCA PROPERTY INTEGRAL CALCULATIONS
------------------------------------------------------------------------------

GBWName                                   ... sp.gbw
Number of atoms                           ...     15
Number of basis functions                 ...    297
Max core memory                           ...   9000 MB

Dipole integrals                          ... YES
Quadrupole integrals                      ...  NO
Linear momentum integrals                 ... YES
Angular momentum integrals                ... YES
Higher moments length integrals           ...  NO
Higher moments velocity integrals         ...  NO
Kinetic energy integrals                  ...  NO
GIAO right hand sides                     ...  NO
GIAO dipole derivative integrals          ...  NO
SOC integrals                             ...  NO
EPR diamagnetic integrals (GIAO)          ...  NO
EPR gauge integrals                       ...  NO
Field gradient integrals                  ...  NO (   0 nuclei)
Spin-dipole/Fermi contact integrals       ...  NO (   0 nuclei)
Contact density integrals                 ...  NO (   0 nuclei)
Nucleus-orbit integrals                   ...  NO (   0 nuclei)
Geometric perturbations                   ...  NO (  15 nuclei)

Choice of electric origin   ... Center of mass
Position of electric origin ... (  1.4699,  1.5995,  0.9477) 
Choice of magnetic origin   ... GIAO
Position of magnetic origin ... (  0.0000,  0.0000,  0.0000) 

Calculating integrals                     ... Electric Dipole (Length)     done (  0.0 sec)
Calculating integrals                     ... Linear Momentum              done (  0.0 sec)
Calculating integrals                     ... Angular Momentum  (ElOri)    done (  0.0 sec)

Property integrals calculated in   0.1 sec

Maximum memory used throughout the entire PROPINT-calculation: 19.1 MB


           ************************************************************
           *        Program running with 8 parallel MPI-processes     *
           *              working on a common directory               *
           ************************************************************


--------------------------------------------------------------------------------
                             ORCA-MATRIX DRIVEN CI
--------------------------------------------------------------------------------

--------------------------------
AUTOMATIC CHOICE OF INCORE LEVEL
--------------------------------

Memory available                           ...   4500.00 MB
Memory needed for S+T                      ...    219.84 MB
Memory needed for J+K                      ...    440.30 MB
Memory needed for DIIS                     ...   3077.74 MB
Memory needed for 3-ext                    ...   1828.13 MB
Memory needed for 4-ext                    ...  12085.99 MB
Memory needed for triples                  ...    507.81 MB
 -> Final InCoreLevel    ... 3
 -> check shows that triples correction can be computed


Wavefunction type
-----------------
Correlation treatment                      ...      CCSD     
Single excitations                         ... ON
Orbital optimization                       ... OFF
Calculation of Z vector                    ... OFF
Calculation of Brueckner orbitals          ... OFF
Perturbative triple excitations            ... ON
Calculation of F12 correction              ... ON
   Using RI for F12 correction             ... ON
Frozen core treatment                      ... chemical core (12 el)
Reference Wavefunction                     ... UHF
  Alpha-MOs occ    :     6 ...   23 ( 18 MO's/ 18 electrons)
  Beta-MOs occ     :     6 ...   22 ( 17 MO's/ 17 electrons)
  Alpha-MOs virt   :    24 ...  260 (237 MO's              )
  Beta-MOs virt    :    23 ...  260 (238 MO's              )
Number of AO's                             ...    261
Number of electrons                        ...     47
Number of correlated electrons             ...     35

Algorithmic settings
--------------------
Integral transformation                    ... Separate K and J transformations
K(C) Formation                             ... AO-EXCHANGE STORED
Maximum number of iterations               ...        50
Convergence tolerance (max. residuum)      ... 2.500e-05
Level shift for amplitude update           ... 2.000e-01
Maximum number of DIIS vectors             ...         7
DIIS turned on at iteration                ...         0
Damping before turning on DIIS             ...     0.500
Damping after turning on DIIS              ...     0.000
Pair specific amplitude update             ... OFF
Natural orbital iterations                 ... OFF
Perturbative natural orbital generation    ... OFF
Printlevel                                 ... 2

Memory handling:
----------------
Maximum memory for working arrays          ...   4500 MB
Data storage in matrix containers          ... UNCOMPRESSED
Data type for integral storage             ... DOUBLE
In-Core Storage of quantities:
   Amplitudes+Sigma Vector      ... YES
   J+K operators                ... YES
   DIIS vectors                 ... YES
   3-external integrals         ... NO
   4-external integrals         ... NO


Initializing the integral package          ... done
Warning: reference  - re-canonicalizations have been set to INT 1 VIRT 1
Fock densities were made 
Making Fock matrix and reference energy:

--------------------------
UNRESTRICTED FOCK OPERATOR
--------------------------

Recanonicalizing the internal orbitals
Recanonicalizing the virtual orbitals
Storing new orbitals
Time needed for Fock operator              ...            4.959 sec
Reference energy                           ...   -269.440302424

-------------------------
SHARK HALF TRANSFORMATION
-------------------------

Number of basis functions                ...    261
Number of operators                      ...      2
   Operator  0:    6-  23

   Operator  1:    6-  22

Integral generator used                  ... SHARK
Contraction scheme used                  ... SEGMENTED CONTRACTION
MaxCore in resort                        ...   9000 MB

Half transformed integrals for op=   0   ... sp.SHARK_MNPQ0.tmp
Resorted half transformed integrals      ... sp._PQMN_0.tmp
Half transformed integrals for op=   1   ... sp.SHARK_MNPQ1.tmp
Resorted half transformed integrals      ... sp._PQMN_1.tmp
Starting integral generation + half trafo... 
Half trafo (segmented) done. Total time =  8.4 sec. integrals=  6.1 sec trafo=  1.7 sec
Starting integral resorting              ... done (  0.4 sec)

SHARK half integral transformation done. Total time =  8.8 sec.

----------------------------------
J-TRAFO SECOND HALF TRANSFORMATION
----------------------------------

Generate (ij|kl)                        ... NO
Generate (ij|ka)                        ... YES
Generate (ij|ab)                        ... YES
Generate (ia|bc)                        ... NO
Generate (ab|cd)                        ... NO
Generate (pq|rs)                        ... NO

Number of operators                     ... 2
   Operator 0                           ...    6-  23 to   24- 260
   PQMN-Container name                  ... sp._PQMN_0.tmp
   IJKA-Container name    op=0,0        ... sp._IJKA_0.tmp
   IJAB-Container name    op=0,0        ... sp._IJAB_0.tmp
   IJKA-Container name    op=0,1        ... sp._IJKA_2.tmp
   IJAB-Container name    op=0,1        ... sp._IJAB_2.tmp
   Operator 1                           ...    6-  22 to   23- 260
   PQMN-Container name                  ... sp._PQMN_1.tmp
   IJKA-Container name    op=1,0        ... sp._IJKA_3.tmp
   IJAB-Container name    op=1,0        ... sp._IJAB_3.tmp
   IJKA-Container name    op=1,1        ... sp._IJKA_1.tmp
   IJAB-Container name    op=1,1        ... sp._IJAB_1.tmp

Starting integral transformations       ... done
Completed Coulomb integral formation in   0.3 sec


-------------------------
SHARK HALF TRANSFORMATION (Exchange order)
-------------------------

Number of basis functions                   ...    261
Number of operators                         ...      2
   Operator  0:    6-  23 (p-index in (p*|q*))
   Operator  0:    6- 260 (q-index in (p*|q*)
   Operator  1:    6-  22 (p-index in (p*|q*))
   Operator  1:    6- 260 (q-index in (p*|q*)
Integral generator used                     ... SHARK
Contraction scheme used                     ... SEGMENTED CONTRACTION
MaxCore in resort                           ...   9000 MB

Half transformed integrals for op=   0      ... sp.SHARK_MNPQ0.tmp
Resorted half transformed integrals         ... sp._PMQN_0.tmp
Half transformed integrals for op=   1      ... sp.SHARK_MNPQ1.tmp
Resorted half transformed integrals         ... sp._PMQN_1.tmp
Half transformed integrals for op=0/1       ... sp.SHARK_MNPQ01.tmp
Resorted half transformed integrals         ... sp._PMQN_2.tmp
Half transformed integrals for op=1/0       ... sp.SHARK_MNPQ10.tmp
Resorted half transformed integrals         ... sp._PMQN_3.tmp

Half trafo (segmented) done. Total time = 48.0 sec. integrals= 11.2 sec trafo= 20.7 sec

----------------------
SHARK INTEGRAL SORTING (Exchange)
----------------------

Input container                             ... sp.SHARK_MNPQ0.tmp
Output container                            ... sp._PMQN_0.tmp
Range of AO-indices                         ...    0 -  260
Range of bra indices i                      ...    6 -   23
Range of ket indices j                      ...    6 -  260
Symmetric i,j range                         ... NO
Number of (i,j) pairs generated             ... 4590
Max Core memory in MB                       ...   9000

Available core memory in MB                 ...   8899.77
MB needed for one item                      ...      0.52
Fixed MB needed                             ...      0.00
Number of items                             ...       574
Number of batches                           ...         1
Items treated per batch                     ...       574
Batch   0                                   ...      0-   573 (   574)
   => Closing output file and leaving

----------------------
SHARK INTEGRAL SORTING (Exchange)
----------------------

Input container                             ... sp.SHARK_MNPQ1.tmp
Output container                            ... sp._PMQN_1.tmp
Range of AO-indices                         ...    0 -  260
Range of bra indices i                      ...    6 -   22
Range of ket indices j                      ...    6 -  260
Symmetric i,j range                         ... NO
Number of (i,j) pairs generated             ... 4335
Max Core memory in MB                       ...   9000

Available core memory in MB                 ...   8900.56
MB needed for one item                      ...      0.52
Fixed MB needed                             ...      0.00
Number of items                             ...       542
Number of batches                           ...         1
Items treated per batch                     ...       542
Batch   0                                   ...      0-   541 (   542)
   => Closing output file and leaving

----------------------
SHARK INTEGRAL SORTING (Exchange)
----------------------

Input container                             ... sp.SHARK_MNPQ01.tmp
Output container                            ... sp._PMQN_2.tmp
Range of AO-indices                         ...    0 -  260
Range of bra indices i                      ...    6 -   23
Range of ket indices j                      ...    6 -  260
Symmetric i,j range                         ... NO
Number of (i,j) pairs generated             ... 4590
Max Core memory in MB                       ...   9000

Available core memory in MB                 ...   8901.34
MB needed for one item                      ...      0.52
Fixed MB needed                             ...      0.00
Number of items                             ...       574
Number of batches                           ...         1
Items treated per batch                     ...       574
Batch   0                                   ...      0-   573 (   574)
   => Closing output file and leaving

----------------------
SHARK INTEGRAL SORTING (Exchange)
----------------------

Input container                             ... sp.SHARK_MNPQ10.tmp
Output container                            ... sp._PMQN_3.tmp
Range of AO-indices                         ...    0 -  260
Range of bra indices i                      ...    6 -   22
Range of ket indices j                      ...    6 -  260
Symmetric i,j range                         ... NO
Number of (i,j) pairs generated             ... 4335
Max Core memory in MB                       ...   9000

Available core memory in MB                 ...   8902.12
MB needed for one item                      ...      0.52
Fixed MB needed                             ...      0.00
Number of items                             ...       542
Number of batches                           ...         1
Items treated per batch                     ...       542
Batch   0                                   ...      0-   541 (   542)
   => Closing output file and leaving
done (  8.8 sec)

SHARK half integral transformation done. Total time = 57.0 sec.

----------------------------------
K-TRAFO SECOND HALF TRANSFORMATION
----------------------------------

Generate (ik|jl)                        ... YES
Generate (ik|ja)                        ... YES
Generate (ia|jb)                        ... YES
Generate (ib|ac)                        ... YES
Generate (ac|bd)                        ... NO
Generate (pr|qs)                        ... NO

Number of operators                     ... 2
   Operator 0                           ...    6-  23 to   24- 260
   Operator 1                           ...    6-  22 to   23- 260

Starting integral transformations       ... done
Completed Exchange integral formation in  12.3 sec


------------------------------
Initializing F12 data (SHARK)
------------------------------

Mapping basis set                  ... done
Dimension of the orbital basis set  = 261
Dimension of the CABS basis set     = 927
Dimension of the AUX basis set      = 756
Threshold for CABS orthogonalization = 1.000e-08
Test shows that OBS-bases are identical for ORCA and SHARK (good)
Test shows that CABS-bases are identical for ORCA and SHARK (good)
Will use an exponential correlation factor -Exp(-gamma r12)/gamma (gamma= 0.900) fit to 6 Gaussians 
Correlation factor:   
  NGauss  :          6      
  Gaussian expansion: 
    a( 0)=    0.1948458958396247  d( 0)=   -0.3837757050057319 
    a( 1)=    0.9387038387678155  d( 1)=   -0.3334018174260626 
    a( 2)=    3.4610351909878712  d( 2)=   -0.1753946777841836 
    a( 3)=   11.7049812253407470  d( 3)=   -0.1006409546144490 
    a( 4)=   44.2276119656826054  d( 4)=   -0.0614475916279048 
    a( 5)=  245.3721739425115800  d( 5)=   -0.0379425509353721 
Calculating one-electron matrices                       ... (SHARK)done (      0.2 sec)
Calculating pre-screening matrices:                     ... 
     (LIBINT-0)       .... 1/r12 done          (      0.2 sec)
     (LIBINT-1)       .... f12/r12 done        (      0.1 sec)
     (LIBINT-2)       .... f12 done            (      0.1 sec)
     (LIBINT-3)       .... f12^2 done          (      0.1 sec)
     (LIBINT-4)       .... [f12,[T1,f12]] done (      0.1 sec)
                                                        ... done (      0.6 sec)
Making CABS spaces                                      ... done (      0.2 sec)
Calculating 2-index 2-center F12 integrals              ... 
Two index explicit correlation integrals  op=0          ...(SHARK-0) done (      0.0 sec)  Metric   done (      0.0 sec)
Two index explicit correlation integrals  op=1          ...(SHARK-1) done (      0.0 sec)  Metric   done (      0.0 sec)
Two index explicit correlation integrals  op=2          ...(SHARK-2) done (      0.0 sec)  Metric   done (      0.0 sec)
Two index explicit correlation integrals  op=3          ...(SHARK-3) done (      0.0 sec)  Metric   done (      0.0 sec)
Two index explicit correlation integrals  op=4          ...(SHARK-4) done (      0.0 sec)  Metric   done (      0.1 sec)
                                                                     done (      0.3 sec)

-----------------------
SPIN UNRESTRICTED GUESS
-----------------------

Spin-components of the MP2 energy:
EMP2(aa)=     -0.124175107
EMP2(bb)=     -0.112822801
EMP2(ab)=     -0.731301204

Initial guess performed in     0.723 sec
E(0)                                       ...   -269.440302424
E(MP2)                                     ...     -0.968299112
Initial E(tot)                             ...   -270.408601535
<T|T>                                      ...      0.305773159
Number of pairs included                   ... 595

------------------------------------------------
                  UHF COUPLED CLUSTER ITERATIONS
------------------------------------------------

Number of amplitudes to be optimized       ...     25413036

Iter       E(tot)           E(Corr)          Delta-E          Residual     Time      <S|S>**1/2
  0   -270.408601589     -0.968299166     -0.000000054      0.022840618   96.56      0.000169327
                           *** Turning on DIIS ***
  1   -270.433434355     -0.993131932     -0.024832766      0.007750994   98.07      0.057675117
  2   -270.459039157     -1.018736733     -0.025604801      0.006829398  101.13      0.079127347
  3   -270.467361334     -1.027058911     -0.008322177      0.005006281  100.65      0.104437179
  4   -270.470575087     -1.030272663     -0.003213753      0.003217668  100.38      0.126773289
  5   -270.472592248     -1.032289825     -0.002017161      0.001263166  102.35      0.150105750
[...]
      dxz     :     0.061597
      dyz     :     0.069251
      dx2y2   :     0.103174
      dxy     :     0.091728
  2 C s       :     2.685063  s :     2.685063
      pz      :     1.005766  p :     2.917465
      px      :     0.972449
      py      :     0.939250
      dz2     :     0.066781  d :     0.426158
      dxz     :     0.101224
      dyz     :     0.062084
      dx2y2   :     0.102287
      dxy     :     0.093782
  3 C s       :     2.735022  s :     2.735022
      pz      :     0.796432  p :     2.825783
      px      :     1.043387
      py      :     0.985963
      dz2     :     0.044924  d :     0.436112
      dxz     :     0.059369
      dyz     :     0.043369
      dx2y2   :     0.122942
      dxy     :     0.165509
  4 C s       :     2.732994  s :     2.732994
      pz      :     0.747690  p :     2.791192
      px      :     1.049291
      py      :     0.994211
      dz2     :     0.077385  d :     0.480786
      dxz     :     0.071169
      dyz     :     0.046612
      dx2y2   :     0.123227
      dxy     :     0.162393
  5 H s       :     0.773420  s :     0.773420
      pz      :     0.091215  p :     0.199237
      px      :     0.055623
      py      :     0.052398
  6 H s       :     0.769441  s :     0.769441
      pz      :     0.068911  p :     0.196032
      px      :     0.076171
      py      :     0.050950
  7 H s       :     0.785326  s :     0.785326
      pz      :     0.063673  p :     0.199155
      px      :     0.051878
      py      :     0.083604
  8 H s       :     0.768302  s :     0.768302
      pz      :     0.097600  p :     0.200461
      px      :     0.049738
      py      :     0.053123
  9 H s       :     0.775213  s :     0.775213
      pz      :     0.071230  p :     0.197300
      px      :     0.074143
      py      :     0.051926
 10 H s       :     0.772795  s :     0.772795
      pz      :     0.089482  p :     0.200128
      px      :     0.057116
      py      :     0.053531
 11 H s       :     0.781707  s :     0.781707
      pz      :     0.054323  p :     0.199119
      px      :     0.061959
      py      :     0.082837
 12 H s       :     0.774319  s :     0.774319
      pz      :     0.049585  p :     0.195399
      px      :     0.061719
      py      :     0.084096
 13 O s       :     3.498849  s :     3.498849
      pz      :     1.209722  p :     4.468238
      px      :     1.709497
      py      :     1.549019
      dz2     :     0.019886  d :     0.063115
      dxz     :     0.007872
      dyz     :     0.007401
      dx2y2   :     0.011165
      dxy     :     0.016791
 14 H s       :     0.687614  s :     0.687614
      pz      :     0.081445  p :     0.428774
      px      :     0.151919
      py      :     0.195410

SPIN
  0 C s       :     0.000356  s :     0.000356
      pz      :     0.001072  p :     0.004025
      px      :     0.000448
      py      :     0.002504
      dz2     :    -0.000820  d :    -0.003039
      dxz     :     0.000255
      dyz     :    -0.001808
      dx2y2   :    -0.000198
      dxy     :    -0.000469
  1 C s       :    -0.000139  s :    -0.000139
      pz      :     0.000220  p :     0.000145
      px      :     0.000050
      py      :    -0.000124
      dz2     :    -0.000125  d :    -0.000720
      dxz     :    -0.000096
      dyz     :    -0.000236
      dx2y2   :    -0.000102
      dxy     :    -0.000161
  2 C s       :    -0.001769  s :    -0.001769
      pz      :    -0.001228  p :    -0.009077
      px      :    -0.001866
      py      :    -0.005984
      dz2     :     0.000612  d :     0.023152
      dxz     :     0.006836
      dyz     :     0.014010
      dx2y2   :     0.001019
      dxy     :     0.000675
  3 C s       :     0.010791  s :     0.010791
      pz      :     0.220850  p :     0.235826
      px      :     0.007637
      py      :     0.007339
      dz2     :     0.002012  d :    -0.001695
      dxz     :    -0.003511
      dyz     :     0.001281
      dx2y2   :    -0.000565
      dxy     :    -0.000912
  4 C s       :     0.000954  s :     0.000954
      pz      :    -0.005947  p :    -0.013295
      px      :    -0.004961
      py      :    -0.002387
      dz2     :     0.017047  d :     0.033581
      dxz     :     0.014429
      dyz     :    -0.000548
      dx2y2   :     0.001862
      dxy     :     0.000791
  5 H s       :    -0.001849  s :    -0.001849
      pz      :    -0.000101  p :    -0.000133
      px      :     0.000063
      py      :    -0.000095
  6 H s       :    -0.000390  s :    -0.000390
      pz      :     0.000190  p :     0.000462
      px      :     0.000079
      py      :     0.000192
  7 H s       :    -0.000139  s :    -0.000139
      pz      :    -0.000052  p :    -0.000067
      px      :    -0.000000
      py      :    -0.000015
  8 H s       :     0.000070  s :     0.000070
      pz      :    -0.000072  p :    -0.000096
      px      :     0.000006
      py      :    -0.000030
  9 H s       :     0.005890  s :     0.005890
      pz      :     0.000386  p :     0.000170
      px      :    -0.000049
      py      :    -0.000166
 10 H s       :     0.011183  s :     0.011183
      pz      :     0.000408  p :     0.001057
      px      :     0.000208
      py      :     0.000442
 11 H s       :    -0.007839  s :    -0.007839
      pz      :     0.018573  p :     0.021177
      px      :     0.000935
      py      :     0.001670
 12 H s       :     0.003232  s :     0.003232
      pz      :    -0.003256  p :    -0.004460
      px      :    -0.000617
      py      :    -0.000587
 13 O s       :     0.022655  s :     0.022655
      pz      :     0.605156  p :     0.653160
      px      :     0.036320
      py      :     0.011684
      dz2     :     0.002436  d :     0.004886
      dxz     :     0.001620
      dyz     :     0.001393
      dx2y2   :    -0.000151
      dxy     :    -0.000412
 14 H s       :    -0.014320  s :    -0.014320
      pz      :     0.027987  p :     0.026257
      px      :    -0.002451
      py      :     0.000722


                      *****************************
                      * MAYER POPULATION ANALYSIS *
                      *****************************

  NA   - Mulliken gross atomic population
  ZA   - Total nuclear charge
  QA   - Mulliken gross atomic charge
  VA   - Mayer's total valence
  BVA  - Mayer's bonded valence
  FA   - Mayer's free valence

  ATOM       NA         ZA         QA         VA         BVA        FA
  0 C      6.2601     6.0000    -0.2601     4.2989     3.9527     0.3462
  1 C      6.2842     6.0000    -0.2842     4.2628     3.9143     0.3485
  2 C      6.2296     6.0000    -0.2296     4.3070     3.9603     0.3467
  3 C      6.1964     6.0000    -0.1964     4.1734     3.6920     0.4814
  4 C      6.0162     6.0000    -0.0162     4.1552     3.7697     0.3855
  5 H      0.8551     1.0000     0.1449     0.9927     0.9236     0.0692
  6 H      0.8509     1.0000     0.1491     1.0015     0.9344     0.0671
  7 H      0.8496     1.0000     0.1504     0.9823     0.9145     0.0678
  8 H      0.8517     1.0000     0.1483     0.9985     0.9314     0.0671
  9 H      0.8620     1.0000     0.1380     1.0017     0.9333     0.0684
 10 H      0.8613     1.0000     0.1387     0.9978     0.9277     0.0700
 11 H      0.8435     1.0000     0.1565     0.9780     0.9115     0.0664
 12 H      0.8471     1.0000     0.1529     0.9796     0.9149     0.0647
 13 O      8.3989     8.0000    -0.3989     2.1773     1.2639     0.9135
 14 H      0.7935     1.0000     0.2065     1.0218     0.9458     0.0760

  Mayer bond orders larger than 0.100000
B(  0-C ,  1-C ) :   0.9961 B(  0-C ,  4-C ) :   1.0221 B(  0-C ,  5-H ) :   0.8855 
B(  0-C ,  6-H ) :   0.8994 B(  1-C ,  2-C ) :   1.0309 B(  1-C ,  7-H ) :   0.8987 
B(  1-C ,  8-H ) :   0.9183 B(  2-C ,  3-C ) :   1.0385 B(  2-C ,  9-H ) :   0.8895 
B(  2-C , 10-H ) :   0.8909 B(  3-C ,  4-C ) :   1.5414 B(  3-C , 11-H ) :   0.8923 
B(  3-C , 13-O ) :   0.1234 B(  4-C , 12-H ) :   0.8871 B(  4-C , 13-O ) :   0.2329 
B( 13-O , 14-H ) :   0.9066 



--------------------------------------------------------------------------------
                                    TIMINGS
--------------------------------------------------------------------------------


Total execution time                   ...     3289.602 sec

Fock Matrix Formation                  ...        4.959 sec (  0.2%)
Initial Guess                          ...        0.723 sec (  0.0%)
DIIS Solver                            ...       48.570 sec (  1.5%)
State Vector Update                    ...        1.431 sec (  0.0%)
Sigma-vector construction              ...     1666.206 sec ( 50.7%)
  <0|H|D>                              ...        0.432 sec (  0.0% of sigma)
  <D|H|D>(0-ext Fock)                  ...        3.433 sec (  0.2% of sigma)
  <D|H|D>(0-ext)                       ...       28.093 sec (  1.7% of sigma)
  <D|H|D>(2-ext Fock)                  ...        2.588 sec (  0.2% of sigma)
  <D|H|D>(2-ext)                       ...      195.109 sec ( 11.7% of sigma)
  <D|H|D>(4-ext)                       ...      707.956 sec ( 42.5% of sigma)
  <S|H|0>                              ...      296.108 sec ( 17.8% of sigma)
  <S|H|S>                              ...        0.012 sec (  0.0% of sigma)
  <S|H|D>(1-ext)                       ...        0.831 sec (  0.0% of sigma)
  <D|H|S>(1-ext)                       ...        4.399 sec (  0.3% of sigma)
  Fock-dressing                        ...       74.659 sec (  4.5% of sigma)
  (ik|jl)-dressing                     ...       60.497 sec (  3.6% of sigma)
  (ij|ab),(ia|jb)-dressing             ...      277.271 sec ( 16.6% of sigma)
  Pair energies                        ...        0.504 sec (  0.0% of sigma)
Total Time for computing (T)           ...     1193.739 sec ( 36.3% of ALL)
  I/O of integral and amplitudes       ...       75.427 sec (  6.3% of (T))
  External N**7 contributions          ...      842.191 sec ( 70.6% of (T))
  Internal N**7 contributions          ...       78.493 sec (  6.6% of (T))
  N**6 triples energy contributions    ...      196.520 sec ( 16.5% of (T))


Maximum memory used throughout the entire MDCI-calculation: 7239.8 MB

-------------------------   --------------------
FINAL SINGLE POINT ENERGY      -270.668558991994
-------------------------   --------------------



           ************************************************************
           *        Program running with 8 parallel MPI-processes     *
           *              working on a common directory               *
           ************************************************************

------------------------------------------------------------------------------
                              ORCA PROPERTY CALCULATIONS
------------------------------------------------------------------------------

GBWName                                 ... sp.gbw
Number of atoms                         ...     15
Number of basis functions               ...    297
Max core memory                         ...   9000 MB

Electric properties:
Dipole moment                           ... YES
Quadrupole moment                       ...  NO
Static polarizability (Dipole/Dipole)   ...  NO
Static polarizability (Dipole/Quad.)    ...  NO
Static polarizability (Quad./Quad.)     ...  NO
Static polarizability (Velocity)        ...  NO
Static hyperpolarizability              ...  NO

Atomic electric properties:
Dipole moment                           ...  NO
Quadrupole moment                       ...  NO
Static polarizability                   ...  NO

Choice of electric origin               ... Center of mass
Position of electric origin             ...     1.469884     1.599468     0.947678

General magnetic properties:
Magnetizability                         ...  NO

EPR properties:
g-Tensor (aka g-matrix)                 ...  NO
Zero-Field splitting spin-orbit         ...  NO
Zero-field splitting spin-spin          ...  NO
Hyperfine couplings                     ...  NO (   0 nuclei)
Quadrupole couplings                    ...  NO (   0 nuclei)
Contact density                         ...  NO (   0 nuclei)

NMR properties:
Chemical shifts                         ...  NO (   0 nuclei)
Spin-rotation constants                 ...  NO (   0 nuclei)
Spin-spin couplings                     ...  NO (   0 nuclei,    0 pairs)

Choice of magnetic origin               ... GIAO
Position of magnetic origin             ...     0.000000     0.000000     0.000000

Properties with geometric perturbations:
SCF Hessian                             ...  NO
IR spectrum                             ...  NO
VCD spectrum                            ...  NO
X-ray spectroscopy properties:
SCF XES/XAS/RIXS spectra                ...  NO

SCF SOC stabilization energy            ...  NO
Diagonal Born-Oppenheimer correction    ...  NO

-------------
DIPOLE MOMENT
-------------

Method             : SCF
Type of density    : Electron Density
Multiplicity       :   2
Irrep              :   0
Energy             :  -269.4403024253440435 Eh
Basis              : AO
                                X                 Y                 Z
Electronic contribution:      0.515774295      -2.237539001       1.396816176
Nuclear contribution   :     -0.751398347       1.836201349      -1.597302915
                        -----------------------------------------
Total Dipole Moment    :     -0.235624052      -0.401337651      -0.200486739
                        -----------------------------------------
Magnitude (a.u.)       :      0.506740108
Magnitude (Debye)      :      1.288030992



--------------------
Rotational spectrum 
--------------------
 
Rotational constants in cm-1:             0.156239             0.110709             0.097197 
Rotational constants in MHz :          4683.921584          3318.977697          2913.906520 

Dipole components along the rotational axes: 
x,y,z [a.u.] :    -0.087080     0.391100    -0.310232 
x,y,z [Debye]:    -0.221339     0.994096    -0.788547 

 

-------------
DIPOLE MOMENT
-------------

Method             : MDCI(SD)
Type of density    : Electron Density
Multiplicity       :   2
Level              : Linearized density
Irrep              :   0
Energy             :     0.0000000000000000 Eh
Basis              : AO
                                X                 Y                 Z
Electronic contribution:      0.426353654      -2.096215401       0.988211718
Nuclear contribution   :     -0.751398347       1.836201349      -1.597302915
                        -----------------------------------------
Total Dipole Moment    :     -0.325044693      -0.260014051      -0.609091197
                        -----------------------------------------
Magnitude (a.u.)       :      0.737735349
Magnitude (Debye)      :      1.875174235



--------------------
Rotational spectrum 
--------------------
 
Rotational constants in cm-1:             0.156239             0.110709             0.097197 
Rotational constants in MHz :          4683.921584          3318.977697          2913.906520 

Dipole components along the rotational axes: 
x,y,z [a.u.] :     0.295080     0.420704    -0.529329 
x,y,z [Debye]:     0.750034     1.069344    -1.345448 

 

Dipole moment calculation done in   0.0 sec 

Maximum memory used throughout the entire PROP-calculation: 17.3 MB

--------------------------------
SUGGESTED CITATIONS FOR THIS RUN
--------------------------------

Below you find a list of papers that are relevant to this ORCA run
We neither can nor want to force you to cite these papers, but we appreciate if you do
You receive ORCA, which is the product of decades of hard work by many enthusiastic individuals, for free
The only thing we kindly ask in return is that you cite our papers,
We deeply appreciate it, if you show your appreciation for ORCA by not just citing the generic ORCA reference.

Please note that relegating all ORCA citations to the supporting information does *not* help us.
SI sections are not indexed - citations you put there will not count into any citation statistics
But we need these citations in order to attract the funding resources that allow us to do what we are doing

Therefore, if you are a happy ORCA user, please consider citing a few of the papers listed below in the main body of your paper

In addition to the list printed below, the program has created the file sp.bibtex that contains the list in bibtex format
You can import this file easily into all common literature databanks and citation aid programs

It goes without saying that in many instances, there are alternative algorithms to achieve similar
results as the ones you have gotten from ORCA. It is, of course, also the case that in some instances
ORCA just re-implements algorithms worked out by others. We are fully aware of that and we are also
fully appreciative of our colleagues work. Hence this citation list should not be read as indicating
that the listed papers, which are focused on our own work, are the only ones worth citing. It simply
meant to make it easier for users to cite ORCA specific papers. It is not a substitute for doing your
own literature research and citing the relevant literature in a scientifically appropriate manner.

List of essential papers. We consider these as the minimum necessary citations

  1. Neese, F.
     Software update: the ORCA program system, version 6.0
     WIRES Comput. Molec. Sci. 2025 15(1), e70019
     doi.org/10.1002/wcms.70019

List of papers to cite with high priority. The work reported in these papers was absolutely
necessary for this run to complete.
Our perspective: the developers of density functionals and basis sets usually get cited in chemistry papers
Good! But without the algorithms to do something with them, the functionals or basis sets would not do anything.
Hence, in our opinion, the algorithm design and method developments papers are equally worthy of getting cited

  1. Pavosevic, F.; Neese, F.; Valeev, E.F.
     Geminal-spanning orbitals make explicitly correlated reduced-scaling coupled-cluster methods robust, yet simple
     J. Chem. Phys. 2014 141 , 
     doi.org/10.1063/1.4890002
  2. Neese, F.
     The SHARK Integral Generation and Digestion System
     J. Comp. Chem. 2022 44(3), 381
     doi.org/10.1002/jcc.26942

List of suggested additional citations. These are papers that are important in the 'surrounding' of 
of this run, or papers that preceded the highly important papers. If you like your results we are grateful for a citation.

  1. Neese, F.
     The ORCA program system
     WIRES Comput. Molec. Sci. 2012 2(1), 73-78
     doi.org/10.1002/wcms.81
  2. Neese, F.
     Software update: the ORCA program system, version 4.0
     WIRES Comput. Molec. Sci. 2018 8(1), 1-6
     doi.org/10.1002/wcms.1327
  3. Neese, F.; Wennmohs, F.; Becker, U.; Riplinger, C.
     The ORCA quantum chemistry program package
     J. Chem. Phys. 2020 152(22), 224108
     doi.org/10.1063/5.0004608
  4. Neese, F.
     Software update: The ORCA program system—Version 5.0
     WIRES Comput. Molec. Sci. 2022 12(1), e1606
     doi.org/10.1002/wcms.1606

List of optional additional citations

  1. Neese, F.
     Approximate second-order SCF convergence for spin unrestricted wavefunctions
     Chem. Phys. Lett. 2000 325(1-3), 93-98
     doi.org/10.1016/s0009-2614(00)00662-x

Timings for individual modules:

Sum of individual times          ...     3375.389 sec (=  56.256 min)
Startup calculation              ...        5.066 sec (=   0.084 min)   0.2 %
SCF iterations                   ...       66.500 sec (=   1.108 min)   2.0 %
Property integrals               ...        3.125 sec (=   0.052 min)   0.1 %
Property calculations            ...        3.086 sec (=   0.051 min)   0.1 %
MDCI module                      ...     3297.612 sec (=  54.960 min)  97.7 %
                             ****ORCA TERMINATED NORMALLY****
TOTAL RUN TIME: 0 days 0 hours 56 minutes 18 seconds 267 msec
