15
* (null), Energy   -1000.0000000
C    -0.178978    1.250641    0.468108   -0.048182    0.024994    0.010609
C    -1.098453    0.943816   -0.450919   -0.023575    0.014966   -0.025709
H     0.050941    2.251326    0.811847   -0.067283    0.036263    0.003620
C    -1.130898   -0.536477   -0.740036   -0.010864   -0.003080   -0.014153
H    -1.728359    1.662288   -0.961106    0.015143    0.010720   -0.079706
C    -0.306814   -1.132399    0.421132   -0.059972   -0.010264    0.027581
H    -0.665224   -0.742790   -1.710465   -0.008463   -0.019390   -0.010872
H    -2.145884   -0.937404   -0.784192   -0.008657   -0.008871   -0.029543
C     0.555384    0.030739    0.926818   -0.069739   -0.019769    0.191340
H     0.287437   -1.996500    0.125154   -0.019028    0.024741    0.001659
H    -0.982575   -1.445096    1.221661   -0.122351   -0.098668   -0.077393
H     1.587732   -0.009276    0.399135   -0.619302   -0.009646    1.467195
H     0.804075   -0.000603    1.988967   -0.988212    0.025699    0.422171
O     2.670441   -0.024360   -0.591997    0.288496   -0.002836   -0.255463
H     2.281175    0.686096   -1.124108   -0.230780    0.002567    0.097583
15
* Frequency(6) -685.6376
C    -0.184453    1.253482    0.469313   -0.048182    0.024994    0.010609
C    -1.101132    0.945517   -0.453841   -0.023575    0.014966   -0.025709
H     0.043295    2.255447    0.812258   -0.067283    0.036263    0.003620
C    -1.132133   -0.536828   -0.741644   -0.010864   -0.003080   -0.014153
H    -1.726638    1.663506   -0.970164    0.015143    0.010720   -0.079706
C    -0.313630   -1.133565    0.424266   -0.059972   -0.010264    0.027581
H    -0.666185   -0.744994   -1.711700   -0.008463   -0.019390   -0.010872
H    -2.146868   -0.938412   -0.787549   -0.008657   -0.008871   -0.029543
C     0.547458    0.028492    0.948563   -0.069739   -0.019769    0.191340
H     0.285274   -1.993688    0.125342   -0.019028    0.024741    0.001659
H    -0.996480   -1.456309    1.212865   -0.122351   -0.098668   -0.077393
H     1.517352   -0.010372    0.565874   -0.619302   -0.009646    1.467195
H     0.691770    0.002317    2.036945   -0.988212    0.025699    0.422171
O     2.703227   -0.024682   -0.621029    0.288496   -0.002836   -0.255463
H     2.254948    0.686387   -1.113018   -0.230780    0.002567    0.097583
15
* Frequency(6) -685.6376
C    -0.189336    1.256014    0.470388   -0.048182    0.024994    0.010609
C    -1.103521    0.947034   -0.456446   -0.023575    0.014966   -0.025709
H     0.036477    2.259121    0.812625   -0.067283    0.036263    0.003620
C    -1.133234   -0.537140   -0.743079   -0.010864   -0.003080   -0.014153
H    -1.725103    1.664592   -0.978241    0.015143    0.010720   -0.079706
C    -0.319707   -1.134605    0.427061   -0.059972   -0.010264    0.027581
H    -0.667043   -0.746959   -1.712802   -0.008463   -0.019390   -0.010872
H    -2.147745   -0.939311   -0.790543   -0.008657   -0.008871   -0.029543
C     0.540392    0.026489    0.967952   -0.069739   -0.019769    0.191340
H     0.283346   -1.991181    0.125510   -0.019028    0.024741    0.001659
H    -1.008878   -1.466307    1.205023   -0.122351   -0.098668   -0.077393
H     1.454598   -0.011349    0.714545   -0.619302   -0.009646    1.467195
H     0.591635    0.004921    2.079723   -0.988212    0.025699    0.422171
O     2.732460   -0.024969   -0.646915    0.288496   -0.002836   -0.255463
H     2.231563    0.686647   -1.103130   -0.230780    0.002567    0.097583
15
* Frequency(6) -685.6376
C    -0.193096    1.257965    0.471216   -0.048182    0.024994    0.010609
C    -1.105360    0.948202   -0.458452   -0.023575    0.014966   -0.025709
H     0.031227    2.261951    0.812908   -0.067283    0.036263    0.003620
C    -1.134081   -0.537380   -0.744183   -0.010864   -0.003080   -0.014153
H    -1.723922    1.665429   -0.984461    0.015143    0.010720   -0.079706
C    -0.324386   -1.135406    0.429213   -0.059972   -0.010264    0.027581
H    -0.667703   -0.748472   -1.713650   -0.008463   -0.019390   -0.010872
H    -2.148421   -0.940004   -0.792848   -0.008657   -0.008871   -0.029543
C     0.534950    0.024946    0.982883   -0.069739   -0.019769    0.191340
H     0.281861   -1.989251    0.125640   -0.019028    0.024741    0.001659
H    -1.018425   -1.474006    1.198984   -0.122351   -0.098668   -0.077393
H     1.406272   -0.012102    0.829036   -0.619302   -0.009646    1.467195
H     0.514521    0.006927    2.112667   -0.988212    0.025699    0.422171
O     2.754973   -0.025191   -0.666850    0.288496   -0.002836   -0.255463
H     2.213554    0.686848   -1.095515   -0.230780    0.002567    0.097583
15
* Frequency(6) -685.6376
C    -0.195326    1.259122    0.471707   -0.048182    0.024994    0.010609
C    -1.106451    0.948894   -0.459642   -0.023575    0.014966   -0.025709
H     0.028113    2.263630    0.813075   -0.067283    0.036263    0.003620
C    -1.134584   -0.537523   -0.744838   -0.010864   -0.003080   -0.014153
H    -1.723221    1.665925   -0.988150    0.015143    0.010720   -0.079706
C    -0.327162   -1.135881    0.430490   -0.059972   -0.010264    0.027581
H    -0.668095   -0.749369   -1.714154   -0.008463   -0.019390   -0.010872
H    -2.148822   -0.940414   -0.794215   -0.008657   -0.008871   -0.029543
C     0.531722    0.024031    0.991738   -0.069739   -0.019769    0.191340
H     0.280981   -1.988106    0.125717   -0.019028    0.024741    0.001659
H    -1.024088   -1.478573    1.195402   -0.122351   -0.098668   -0.077393
H     1.377609   -0.012548    0.896940   -0.619302   -0.009646    1.467195
H     0.468784    0.008116    2.132206   -0.988212    0.025699    0.422171
O     2.768325   -0.025322   -0.678673    0.288496   -0.002836   -0.255463
H     2.202873    0.686967   -1.090999   -0.230780    0.002567    0.097583
15
* Frequency(6) -685.6376
C    -0.195784    1.259359    0.471808   -0.048182    0.024994    0.010609
C    -1.106676    0.949037   -0.459886   -0.023575    0.014966   -0.025709
H     0.027473    2.263975    0.813110   -0.067283    0.036263    0.003620
C    -1.134688   -0.537552   -0.744973   -0.010864   -0.003080   -0.014153
H    -1.723077    1.666027   -0.988908    0.015143    0.010720   -0.079706
C    -0.327733   -1.135979    0.430752   -0.059972   -0.010264    0.027581
H    -0.668175   -0.749554   -1.714257   -0.008463   -0.019390   -0.010872
H    -2.148904   -0.940499   -0.794496   -0.008657   -0.008871   -0.029543
C     0.531059    0.023843    0.993559   -0.069739   -0.019769    0.191340
H     0.280800   -1.987870    0.125732   -0.019028    0.024741    0.001659
H    -1.025252   -1.479511    1.194666   -0.122351   -0.098668   -0.077393
H     1.371717   -0.012640    0.910900   -0.619302   -0.009646    1.467195
H     0.459382    0.008361    2.136222   -0.988212    0.025699    0.422171
O     2.771070   -0.025349   -0.681104    0.288496   -0.002836   -0.255463
H     2.200678    0.686991   -1.090070   -0.230780    0.002567    0.097583
15
* Frequency(6) -685.6376
C    -0.194421    1.258652    0.471508   -0.048182    0.024994    0.010609
C    -1.106009    0.948613   -0.459159   -0.023575    0.014966   -0.025709
H     0.029376    2.262949    0.813007   -0.067283    0.036263    0.003620
C    -1.134380   -0.537465   -0.744572   -0.010864   -0.003080   -0.014153
H    -1.723505    1.665724   -0.986654    0.015143    0.010720   -0.079706
C    -0.326036   -1.135689    0.429972   -0.059972   -0.010264    0.027581
H    -0.667936   -0.749005   -1.713949   -0.008463   -0.019390   -0.010872
H    -2.148659   -0.940248   -0.793661   -0.008657   -0.008871   -0.029543
C     0.533031    0.024402    0.988147   -0.069739   -0.019769    0.191340
H     0.281338   -1.988570    0.125685   -0.019028    0.024741    0.001659
H    -1.021792   -1.476721    1.196855   -0.122351   -0.098668   -0.077393
H     1.389233   -0.012367    0.869402   -0.619302   -0.009646    1.467195
H     0.487333    0.007634    2.124282   -0.988212    0.025699    0.422171
O     2.762910   -0.025269   -0.673878    0.288496   -0.002836   -0.255463
H     2.207205    0.686918   -1.092830   -0.230780    0.002567    0.097583
15
* Frequency(6) -685.6376
C    -0.191385    1.257077    0.470839   -0.048182    0.024994    0.010609
C    -1.104523    0.947670   -0.457539   -0.023575    0.014966   -0.025709
H     0.033616    2.260664    0.812779   -0.067283    0.036263    0.003620
C    -1.133696   -0.537271   -0.743680   -0.010864   -0.003080   -0.014153
H    -1.724459    1.665048   -0.981631    0.015143    0.010720   -0.079706
C    -0.322257   -1.135042    0.428234   -0.059972   -0.010264    0.027581
H    -0.667403   -0.747783   -1.713264   -0.008463   -0.019390   -0.010872
H    -2.148114   -0.939689   -0.791799   -0.008657   -0.008871   -0.029543
C     0.537426    0.025648    0.976089   -0.069739   -0.019769    0.191340
H     0.282537   -1.990129    0.125581   -0.019028    0.024741    0.001659
H    -1.014081   -1.470503    1.201732   -0.122351   -0.098668   -0.077393
H     1.428260   -0.011760    0.776943   -0.619302   -0.009646    1.467195
H     0.549607    0.006014    2.097678   -0.988212    0.025699    0.422171
O     2.744730   -0.025090   -0.657779    0.288496   -0.002836   -0.255463
H     2.221748    0.686757   -1.098980   -0.230780    0.002567    0.097583
15
* Frequency(6) -685.6376
C    -0.187004    1.254805    0.469875   -0.048182    0.024994    0.010609
C    -1.102380    0.946310   -0.455202   -0.023575    0.014966   -0.025709
H     0.039733    2.257367    0.812450   -0.067283    0.036263    0.003620
C    -1.132708   -0.536991   -0.742394   -0.010864   -0.003080   -0.014153
H    -1.725836    1.664074   -0.974384    0.015143    0.010720   -0.079706
C    -0.316804   -1.134109    0.425726   -0.059972   -0.010264    0.027581
H    -0.666633   -0.746021   -1.712276   -0.008463   -0.019390   -0.010872
H    -2.147326   -0.938882   -0.789113   -0.008657   -0.008871   -0.029543
C     0.543767    0.027445    0.958692   -0.069739   -0.019769    0.191340
H     0.284267   -1.992379    0.125430   -0.019028    0.024741    0.001659
H    -1.002957   -1.461532    1.208769   -0.122351   -0.098668   -0.077393
H     1.484568   -0.010883    0.643543   -0.619302   -0.009646    1.467195
H     0.639457    0.003678    2.059293   -0.988212    0.025699    0.422171
O     2.718499   -0.024832   -0.634552    0.288496   -0.002836   -0.255463
H     2.242731    0.686523   -1.107852   -0.230780    0.002567    0.097583
15
* Frequency(6) -685.6376
C    -0.181753    1.252081    0.468719   -0.048182    0.024994    0.010609
C    -1.099811    0.944679   -0.452400   -0.023575    0.014966   -0.025709
H     0.047065    2.253415    0.812056   -0.067283    0.036263    0.003620
C    -1.131524   -0.536655   -0.740851   -0.010864   -0.003080   -0.014153
H    -1.727486    1.662905   -0.965698    0.015143    0.010720   -0.079706
C    -0.310269   -1.132990    0.422721   -0.059972   -0.010264    0.027581
H    -0.665711   -0.743907   -1.711091   -0.008463   -0.019390   -0.010872
H    -2.146383   -0.937915   -0.785894   -0.008657   -0.008871   -0.029543
C     0.551366    0.029600    0.937841   -0.069739   -0.019769    0.191340
H     0.286341   -1.995075    0.125249   -0.019028    0.024741    0.001659
H    -0.989624   -1.450780    1.217202   -0.122351   -0.098668   -0.077393
H     1.552055   -0.009831    0.483658   -0.619302   -0.009646    1.467195
H     0.747146    0.000877    2.013288   -0.988212    0.025699    0.422171
O     2.687061   -0.024523   -0.606713    0.288496   -0.002836   -0.255463
H     2.267880    0.686244   -1.118486   -0.230780    0.002567    0.097583
15
* Frequency(6) -685.6376
C    -0.176202    1.249201    0.467496   -0.048182    0.024994    0.010609
C    -1.097095    0.942954   -0.449438   -0.023575    0.014966   -0.025709
H     0.054817    2.249237    0.811639   -0.067283    0.036263    0.003620
C    -1.130272   -0.536300   -0.739221   -0.010864   -0.003080   -0.014153
H    -1.729231    1.661670   -0.956515    0.015143    0.010720   -0.079706
C    -0.303359   -1.131808    0.419543   -0.059972   -0.010264    0.027581
H    -0.664736   -0.741673   -1.709839   -0.008463   -0.019390   -0.010872
H    -2.145386   -0.936893   -0.782490   -0.008657   -0.008871   -0.029543
C     0.559401    0.031877    0.915796   -0.069739   -0.019769    0.191340
H     0.288533   -1.997925    0.125058   -0.019028    0.024741    0.001659
H    -0.975527   -1.439411    1.226119   -0.122351   -0.098668   -0.077393
H     1.623409   -0.008720    0.314613   -0.619302   -0.009646    1.467195
H     0.861004   -0.002084    1.964647   -0.988212    0.025699    0.422171
O     2.653821   -0.024196   -0.577280    0.288496   -0.002836   -0.255463
H     2.294469    0.685948   -1.129729   -0.230780    0.002567    0.097583
15
* Frequency(6) -685.6376
C    -0.170951    1.246478    0.466340   -0.048182    0.024994    0.010609
C    -1.094526    0.941323   -0.446636   -0.023575    0.014966   -0.025709
H     0.062149    2.245285    0.811244   -0.067283    0.036263    0.003620
C    -1.129088   -0.535964   -0.737678   -0.010864   -0.003080   -0.014153
H    -1.730881    1.660502   -0.947829    0.015143    0.010720   -0.079706
C    -0.296824   -1.130689    0.416537   -0.059972   -0.010264    0.027581
H    -0.663814   -0.739560   -1.708654   -0.008463   -0.019390   -0.010872
H    -2.144442   -0.935926   -0.779270   -0.008657   -0.008871   -0.029543
C     0.567001    0.034032    0.894945   -0.069739   -0.019769    0.191340
H     0.290607   -2.000621    0.124877   -0.019028    0.024741    0.001659
H    -0.962194   -1.428659    1.234553   -0.122351   -0.098668   -0.077393
H     1.690896   -0.007669    0.154728   -0.619302   -0.009646    1.467195
H     0.968693   -0.004884    1.918641   -0.988212    0.025699    0.422171
O     2.622383   -0.023887   -0.549441    0.288496   -0.002836   -0.255463
H     2.319618    0.685668   -1.140363   -0.230780    0.002567    0.097583
15
* Frequency(6) -685.6376
C    -0.166571    1.244205    0.465376   -0.048182    0.024994    0.010609
C    -1.092382    0.939963   -0.444299   -0.023575    0.014966   -0.025709
H     0.068267    2.241988    0.810915   -0.067283    0.036263    0.003620
C    -1.128100   -0.535684   -0.736391   -0.010864   -0.003080   -0.014153
H    -1.732258    1.659527   -0.940582    0.015143    0.010720   -0.079706
C    -0.291371   -1.129756    0.414030   -0.059972   -0.010264    0.027581
H    -0.663044   -0.737797   -1.707665   -0.008463   -0.019390   -0.010872
H    -2.143655   -0.935120   -0.776584   -0.008657   -0.008871   -0.029543
C     0.573342    0.035829    0.877548   -0.069739   -0.019769    0.191340
H     0.292337   -2.002871    0.124727   -0.019028    0.024741    0.001659
H    -0.951069   -1.419688    1.241590   -0.122351   -0.098668   -0.077393
H     1.747204   -0.006792    0.021328   -0.619302   -0.009646    1.467195
H     1.058543   -0.007221    1.880257   -0.988212    0.025699    0.422171
O     2.596152   -0.023630   -0.526214    0.288496   -0.002836   -0.255463
H     2.340601    0.685435   -1.149236   -0.230780    0.002567    0.097583
15
* Frequency(6) -685.6376
C    -0.163534    1.242630    0.464707   -0.048182    0.024994    0.010609
C    -1.090897    0.939019   -0.442679   -0.023575    0.014966   -0.025709
H     0.072507    2.239703    0.810687   -0.067283    0.036263    0.003620
C    -1.127416   -0.535490   -0.735499   -0.010864   -0.003080   -0.014153
H    -1.733212    1.658852   -0.935559    0.015143    0.010720   -0.079706
C    -0.287592   -1.129109    0.412292   -0.059972   -0.010264    0.027581
H    -0.662511   -0.736576   -1.706980   -0.008463   -0.019390   -0.010872
H    -2.143110   -0.934561   -0.774722   -0.008657   -0.008871   -0.029543
C     0.577736    0.037075    0.865490   -0.069739   -0.019769    0.191340
H     0.293536   -2.004430    0.124622   -0.019028    0.024741    0.001659
H    -0.943359   -1.413470    1.246467   -0.122351   -0.098668   -0.077393
H     1.786231   -0.006184   -0.071131   -0.619302   -0.009646    1.467195
H     1.120817   -0.008840    1.853653   -0.988212    0.025699    0.422171
O     2.577972   -0.023451   -0.510115    0.288496   -0.002836   -0.255463
H     2.355144    0.685273   -1.155385   -0.230780    0.002567    0.097583
15
* Frequency(6) -685.6376
C    -0.162171    1.241923    0.464407   -0.048182    0.024994    0.010609
C    -1.090230    0.938596   -0.441951   -0.023575    0.014966   -0.025709
H     0.074410    2.238677    0.810584   -0.067283    0.036263    0.003620
C    -1.127108   -0.535403   -0.735099   -0.010864   -0.003080   -0.014153
H    -1.733640    1.658549   -0.933304    0.015143    0.010720   -0.079706
C    -0.285895   -1.128819    0.411512   -0.059972   -0.010264    0.027581
H    -0.662272   -0.736027   -1.706673   -0.008463   -0.019390   -0.010872
H    -2.142865   -0.934310   -0.773887   -0.008657   -0.008871   -0.029543
C     0.579709    0.037634    0.860078   -0.069739   -0.019769    0.191340
H     0.294074   -2.005130    0.124575   -0.019028    0.024741    0.001659
H    -0.939899   -1.410680    1.248656   -0.122351   -0.098668   -0.077393
H     1.803747   -0.005911   -0.112629   -0.619302   -0.009646    1.467195
H     1.148768   -0.009567    1.841712   -0.988212    0.025699    0.422171
O     2.569812   -0.023371   -0.502890    0.288496   -0.002836   -0.255463
H     2.361671    0.685200   -1.158145   -0.230780    0.002567    0.097583
15
* Frequency(6) -685.6376
C    -0.162630    1.242161    0.464508   -0.048182    0.024994    0.010609
C    -1.090454    0.938739   -0.442196   -0.023575    0.014966   -0.025709
H     0.073770    2.239022    0.810619   -0.067283    0.036263    0.003620
C    -1.127212   -0.535432   -0.735234   -0.010864   -0.003080   -0.014153
H    -1.733496    1.658651   -0.934063    0.015143    0.010720   -0.079706
C    -0.286466   -1.128917    0.411774   -0.059972   -0.010264    0.027581
H    -0.662352   -0.736212   -1.706776   -0.008463   -0.019390   -0.010872
H    -2.142947   -0.934394   -0.774168   -0.008657   -0.008871   -0.029543
C     0.579045    0.037446    0.861899   -0.069739   -0.019769    0.191340
H     0.293893   -2.004894    0.124591   -0.019028    0.024741    0.001659
H    -0.941063   -1.411618    1.247919   -0.122351   -0.098668   -0.077393
H     1.797855   -0.006003   -0.098669   -0.619302   -0.009646    1.467195
H     1.139366   -0.009323    1.845729   -0.988212    0.025699    0.422171
O     2.572557   -0.023398   -0.505321    0.288496   -0.002836   -0.255463
H     2.359476    0.685225   -1.157217   -0.230780    0.002567    0.097583
15
* Frequency(6) -685.6376
C    -0.164860    1.243318    0.464999   -0.048182    0.024994    0.010609
C    -1.091545    0.939431   -0.443386   -0.023575    0.014966   -0.025709
H     0.070656    2.240700    0.810786   -0.067283    0.036263    0.003620
C    -1.127715   -0.535575   -0.735889   -0.010864   -0.003080   -0.014153
H    -1.732795    1.659147   -0.937752    0.015143    0.010720   -0.079706
C    -0.289242   -1.129392    0.413051   -0.059972   -0.010264    0.027581
H    -0.662744   -0.737109   -1.707279   -0.008463   -0.019390   -0.010872
H    -2.143348   -0.934805   -0.775535   -0.008657   -0.008871   -0.029543
C     0.575818    0.036531    0.870754   -0.069739   -0.019769    0.191340
H     0.293012   -2.003749    0.124668   -0.019028    0.024741    0.001659
H    -0.946725   -1.416185    1.244337   -0.122351   -0.098668   -0.077393
H     1.769192   -0.006450   -0.030765   -0.619302   -0.009646    1.467195
H     1.093629   -0.008133    1.865268   -0.988212    0.025699    0.422171
O     2.585909   -0.023529   -0.517144    0.288496   -0.002836   -0.255463
H     2.348795    0.685344   -1.152700   -0.230780    0.002567    0.097583
15
* Frequency(6) -685.6376
C    -0.168620    1.245268    0.465827   -0.048182    0.024994    0.010609
C    -1.093385    0.940599   -0.445392   -0.023575    0.014966   -0.025709
H     0.065406    2.243530    0.811069   -0.067283    0.036263    0.003620
C    -1.128562   -0.535815   -0.736993   -0.010864   -0.003080   -0.014153
H    -1.731614    1.659983   -0.943971    0.015143    0.010720   -0.079706
C    -0.293922   -1.130193    0.415203   -0.059972   -0.010264    0.027581
H    -0.663404   -0.738622   -1.708128   -0.008463   -0.019390   -0.010872
H    -2.144024   -0.935497   -0.777841   -0.008657   -0.008871   -0.029543
C     0.570376    0.034988    0.885685   -0.069739   -0.019769    0.191340
H     0.291528   -2.001819    0.124797   -0.019028    0.024741    0.001659
H    -0.956273   -1.423884    1.238298   -0.122351   -0.098668   -0.077393
H     1.720866   -0.007202    0.083726   -0.619302   -0.009646    1.467195
H     1.016515   -0.006128    1.898211   -0.988212    0.025699    0.422171
O     2.608422   -0.023750   -0.537079    0.288496   -0.002836   -0.255463
H     2.330786    0.685544   -1.145086   -0.230780    0.002567    0.097583
15
* Frequency(6) -685.6376
C    -0.173502    1.247801    0.466902   -0.048182    0.024994    0.010609
C    -1.095774    0.942116   -0.447997   -0.023575    0.014966   -0.025709
H     0.058588    2.247205    0.811436   -0.067283    0.036263    0.003620
C    -1.129663   -0.536127   -0.738427   -0.010864   -0.003080   -0.014153
H    -1.730079    1.661070   -0.952048    0.015143    0.010720   -0.079706
C    -0.299999   -1.131233    0.417998   -0.059972   -0.010264    0.027581
H    -0.664262   -0.740587   -1.709229   -0.008463   -0.019390   -0.010872
H    -2.144901   -0.936396   -0.780834   -0.008657   -0.008871   -0.029543
C     0.563309    0.032985    0.905074   -0.069739   -0.019769    0.191340
H     0.289599   -1.999312    0.124965   -0.019028    0.024741    0.001659
H    -0.968671   -1.433882    1.230456   -0.122351   -0.098668   -0.077393
H     1.658112   -0.008180    0.232396   -0.619302   -0.009646    1.467195
H     0.916380   -0.003524    1.940990   -0.988212    0.025699    0.422171
O     2.637655   -0.024038   -0.562965    0.288496   -0.002836   -0.255463
H     2.307401    0.685804   -1.135197   -0.230780    0.002567    0.097583
15
* Frequency(6) -685.6376
C    -0.178978    1.250641    0.468108   -0.048182    0.024994    0.010609
C    -1.098453    0.943816   -0.450919   -0.023575    0.014966   -0.025709
H     0.050941    2.251326    0.811847   -0.067283    0.036263    0.003620
C    -1.130898   -0.536477   -0.740036   -0.010864   -0.003080   -0.014153
H    -1.728359    1.662288   -0.961106    0.015143    0.010720   -0.079706
C    -0.306814   -1.132399    0.421132   -0.059972   -0.010264    0.027581
H    -0.665224   -0.742790   -1.710465   -0.008463   -0.019390   -0.010872
H    -2.145884   -0.937404   -0.784192   -0.008657   -0.008871   -0.029543
C     0.555384    0.030739    0.926818   -0.069739   -0.019769    0.191340
H     0.287437   -1.996500    0.125154   -0.019028    0.024741    0.001659
H    -0.982575   -1.445096    1.221661   -0.122351   -0.098668   -0.077393
H     1.587732   -0.009276    0.399135   -0.619302   -0.009646    1.467195
H     0.804075   -0.000603    1.988967   -0.988212    0.025699    0.422171
O     2.670441   -0.024360   -0.591997    0.288496   -0.002836   -0.255463
H     2.281175    0.686096   -1.124108   -0.230780    0.002567    0.097583
