
                                 *****************
                                 * O   R   C   A *
                                 *****************

                                            #,                                       
                                            ###                                      
                                            ####                                     
                                            #####                                    
                                            ######                                   
                                           ########,                                 
                                     ,,################,,,,,                         
                               ,,#################################,,                 
                          ,,##########################################,,             
                       ,#########################################, ''#####,          
                    ,#############################################,,   '####,        
                  ,##################################################,,,,####,       
                ,###########''''           ''''###############################       
              ,#####''   ,,,,##########,,,,          '''####'''          '####       
            ,##' ,,,,###########################,,,                        '##       
           ' ,,###''''                  '''############,,,                           
         ,,##''                                '''############,,,,        ,,,,,,###''
      ,#''                                            '''#######################'''  
     '                                                          ''''####''''         
             ,#######,   #######,   ,#######,      ##                                
            ,#'     '#,  ##    ##  ,#'     '#,    #''#        ,####,    ,#,          
            ##       ##  ##   ,#'  ##            #'  '#       #'       ,# #          
            ##       ##  #######   ##           ,######,      #####,      #          
            '#,     ,#'  ##    ##  '#,     ,#' ,#      #,     #,   #      #          
             '#######'   ##     ##  '#######'  #'      '#     '####' #    #          



                #########################################################
                #                        -***-                          #
                #          Department of theory and spectroscopy        #
                #                                                       #
                #                      Frank Neese                      #
                #                                                       #
                #     Directorship, Architecture, Infrastructure        #
                #                    SHARK, DRIVERS                     #
                #        Core code/Algorithms in most modules           #
                #                                                       #
                #        Max Planck Institute fuer Kohlenforschung      #
                #                Kaiser Wilhelm Platz 1                 #
                #                 D-45470 Muelheim/Ruhr                 #
                #                      Germany                          #
                #                                                       #
                #                  All rights reserved                  #
                #                        -***-                          #
                #########################################################


                         Program Version 6.1.1  -  RELEASE   -
                                (GIT: $487d211c$)
                          ($2025-11-21 10:33:24 +0100$)


 With contributions from (in alphabetic order):
[Max-Planck-Institut fuer Kohlenforschung]                               
  Daniel Aravena         : Magnetic Suceptibility                        
  Michael Atanasov       : Ab Initio Ligand Field Theory (pilot matlab implementation)
  Alexander A. Auer      : GIAO ZORA, VPT2 properties, NMR spectrum      
  Ute Becker             : All parallelization in ORCA, NUMFREQ, NUMCALC 
  Giovanni Bistoni       : ED, misc. LED, open-shell LED, HFLD           
  Dmytro Bykov           : pre 5.0 version of the SCF Hessian            
  Marcos Casanova-Páez   : Triplet and SCS-CIS(D). UHF-(DLPNO)-IP/EA/STEOM-CCSD. UHF-CVS-IP/STEOM-CCSD   
  Vijay G. Chilkuri      : MRCI spin determinant printing, contributions to CSF-ICE 
  Pauline Colinet        : FMM embedding                                 
  Dipayan Datta          : RHF DLPNO-CCSD density                        
  Achintya Kumar Dutta   : EOM-CC, STEOM-CC                              
  Nicolas Foglia         : Exact transition moments, OPA infrastructure, MCD improvements    
  Dmitry Ganyushin       : Spin-Orbit,Spin-Spin,Magnetic field MRCI      
  Miquel Garcia-Rates    : C-PCM and meta-GGA Hessian, CCSD/C-PCM, Gaussian charge scheme 
  Tiago L. C. Gouveia    : GS-ROHF, GS-ROCIS                             
  Yang Guo               : DLPNO-NEVPT2, F12-NEVPT2, CIM, IAO-localization        
  Andreas Hansen         : Spin unrestricted coupled pair/coupled cluster methods 
  Ingolf Harden          : AUTO-CI MPn and infrastructure                
  Benjamin Helmich-Paris : MC-RPA, TRAH-(SCF,CASSCF), AVAS, COSX integrals, SCF dyn. polar., MC-PDFT, srDFT 
  Lee Huntington         : MR-EOM, pCC                                   
  Robert Izsak           : Overlap fitted RIJCOSX, COSX-SCS-MP3, EOM     
  Riya Kayal             : Wick's Theorem for AUTO-CI, AUTO-CI UHF-CCSDT 
  Emily Kempfer          : AUTO-CI RHF CISDT and CCSDT, approximate NEVPT4
  Christian Kollmar      : KDIIS, OOCD, Brueckner-CCSD(T), CCSD density, CASPT2, CASPT2-K, improved NEVPT2 
  Axel Koslowski         : Symmetry handling                             
  Simone Kossmann        : meta-GGA functionals, TD-DFT gradient, OOMP2, (MP2 Hessian; deprecated post 5.0) 
  Lucas Lang             : DCDCAS, Hyperfine gauge corrections, ICE-SOC+SSC
  Marvin Lechner         : AUTO-CI (C++ implementation), FIC-MRCC        
  Spencer Leger          : CASSCF response                               
  Dagmar Lenk            : GEPOL surface, SMD, ORCA-2-JSON               
  Dimitrios Liakos       : Extrapolation schemes; Compound Job, Property file
  Dimitrios Manganas     : Further ROCIS development; embedding schemes. LFT, Crystal Embedding 
  Dimitrios Pantazis     : SARC Basis sets                               
  Anastasios Papadopoulos: AUTO-CI, single reference methods and gradients 
  Taras Petrenko         : pre 6.0 DFT Hessian and TD-DFT gradient,  ECA, NRVS 
  Petra Pikulova         : Analytic Raman intensities                    
  Peter Pinski           : DLPNO-MP2, DLPNO-MP2 Gradient                 
  Shashank Vittal Rao    : ES-AILFT, MagRelax                            
  Christoph Reimann      : Effective Core Potentials                     
  Marius Retegan         : Local ZFS, SOC                                
  Christoph Riplinger    : Optimizer, TS searches, QM/MM, DLPNO-CCSD(T), (RO)-DLPNO pert. Triples 
  Michael Roemelt        : Original ROCIS implementation, recursive CI coupling coefficients
  Masaaki Saitow         : Open-shell DLPNO-CCSD energy and density      
  Barbara Sandhoefer     : DKH picture change effects                    
  Yorick L. A. Schmerwitz: GMF and freeze-and-release deltaSCF, NEB S-IDPP initial path                    
  Kantharuban Sivalingam : CASSCF convergence/infrastructure, NEVPT2, NEVPT3, NEVPT4(SD), FIC-MRCI and CEPA variants
  Bernardo de Souza      : ESD, SOC TD-DFT                               
  Georgi L. Stoychev     : AutoAux, RI-MP2 NMR, DLPNO-MP2 response, X2C  
  Van Anh Tran           : RI-MP2 g-tensors                              
  Willem Van den Heuvel  : Paramagnetic NMR                              
  Zikuan Wang            : NOTCH, Electric field optimization            
  Frank Wennmohs         : Technical directorship and infrastructure     
  Hang Xu                : AUTO-CI-Response properties                   
                                                                         
[FACCTs GmbH]                                                            
  Markus Bursch, Nicolas Foglia, Miquel Garcia-Rates, Ingolf Harden, Hagen Neugebauer, Anastasios Papadopoulos, 
  Christoph Riplinger, Bernardo de Souza, Georgi L. Stoychev                                                    
                                                                 
  APM, various basis sets, CI-OPT, improved COSX, DLPNO-Multilevel,           
  DOCKER, DRACO, updates on ESD, Fragmentator, GOAT, IRC, LR-CPCM, L-BFGS, MBIS, meta-GGA TD-DFT gradient, ML-optimized integration grids, 
  MM, NACMEs, nearIR, NEB, NEB-TS, NL-DFT gradient (VV10), 2- and 3-layer-ONIOM, interface openCOSMO-RS, QMMM,   
  Crystal-QMMM, RESP, rigid body optimization, SF, symmetry and pop. for TD-DFT, various functionals, SOLVATOR                                   
                                                                         
[Other institutions]                                                     
  V. Asgeirsson          : NEB                                           
  Christoph Bannwarth    : sTDA-DFT, sTD-DFT, PBEh-3c, B97-3c, D3        
  Giovanni Bistoni       : ETS/NOCV, ADLD/ADEX, COVALED                  
  Martin Brehm           : Molecular dynamics                            
  Ronald Cardenas        : ETS/NOCV                                      
  Martina Colucci        : COVALED                                       
  Sebastian Ehlert       : rSCAN, r2SCAN, r2SCAN-3c, D4, dhf basis sets  
  Marvin Friede          : D4 for Fr, Ra, Ac-Lr                          
  Lars Goerigk           : TD-DFT with DH, B97 family of functionals     
  Stefan Grimme          : VdW corrections, initial TS optimization, DFT functionals, gCP, sTDA/sTD-DF 
  Waldemar Hujo          : DFT-NL                                        
  H. Jonsson             : NEB                                           
  Holger Kruse           : gCP                                           
  Marcel Mueller         : wB97X-3c, vDZP basis set                      
  Hagen Neugebauer       : wr2SCAN, Native XTB                           
  Gianluca Regni         : ADLD/ADEX                                     
  Tobias Risthaus        : pre 6.0 range-separated hybrid DFT and stability analysis
  Lukas Wittmann         : regularized MP2, r2SCAN double-hybrids, wr2SCAN        
                                                                         
We gratefully acknowledge several colleagues who have allowed us to      
interface, adapt or use parts of their codes:                            
  Ed Valeev, F. Pavosevic, A. Kumar             : LibInt (2-el integral package), F12 methods 
  Garnet Chan, S. Sharma, J. Yang, R. Olivares  : DMRG                   
  Ulf Ekstrom                                   : XCFun DFT Library      
  Mihaly Kallay                                 : mrcc  (arbitrary order and MRCC methods)
  Frank Weinhold                                : gennbo (NPA and NBO analysis)           
  Simon Mueller                                 : openCOSMO-RS                            
  Christopher J. Cramer and Donald G. Truhlar   : smd solvation model                     
  S Lehtola, MJT Oliveira, MAL Marques          : LibXC Library                           
  Liviu Ungur et al                             : ANISO software                          


 Your calculation uses the libint2 library for the computation of 2-el integrals
 For citations please refer to: http://libint.valeyev.net

 Your ORCA version has been built with support for libXC version: 7.0.0
 For citations please refer to: https://libxc.gitlab.io

 This ORCA versions uses:
   CBLAS   interface :  Fast vector & matrix operations
   LAPACKE interface :  Fast linear algebra routines
   SCALAPACK package :  Parallel linear algebra routines
   Shared memory     :  Shared parallel matrices
   BLAS/LAPACK       :  OpenBLAS 0.3.29  USE64BITINT DYNAMIC_ARCH NO_AFFINITY Cooperlake SINGLE_THREADED
        Core in use  :  Cooperlake
   Copyright (c) 2011-2014, The OpenBLAS Project


  ***********************************
  * Starting time: Tue Mar 10 21:34:48 2026
  * Host name:     e1-12
  * Process ID:    4150845
  * Working dir.:  /tmp/lscratch/avcopan/43485309
  ***********************************

NOTE: MaxCore=6000 MB was set to SCF,MP2,MDCI,CIPSI,MRCI,RASCI and CIS
      => If you want to overwrite this, your respective input block should be placed after the MaxCore statement


***************************************
The coordinates will be read from file: neb_start.xyz
***************************************


Your calculation utilizes the atom-pairwise dispersion correction
based on EEQ partial charges (D4)


Your calculation utilizes a Nudged-Elastic-Band implementation
by V. Ásgeirsson, C. Riplinger & H. Jónsson
Please cite in your paper:
Ásgeirsson, V.; Birgisson, B. O.; Bjornsson, R.; Becker, U.; Neese, F.; Riplinger, R.;
Jónsson H. J. Chem. Theory Comput. 2021, 17, 4929-4945
   

Warning: RI is on but no J-basis has been assigned. Assigning Def2/J (nothing to worry about!)
================================================================================

----- Orbital basis set information -----
Your calculation utilizes the basis: def2-TZVPP
   F. Weigend and R. Ahlrichs, Phys. Chem. Chem. Phys. 7, 3297 (2005).

----- AuxJ basis set information -----
Your calculation utilizes the auxiliary basis: def2/J
   H-Rn: F. Weigend, Phys. Chem. Chem. Phys. 8, 1057 (2006).
   Fr-Lr: K. Eichkorn, F. Weigend, O. Treutler, R. Ahlrichs; Theor. Chem. Acc. 97, 119 (1997).

----- AuxC basis set information -----
Your calculation utilizes the auxiliary basis: def2-TZVPP/C
  H-La, Hf-Rn : A. Hellweg, C. Hattig, S. Hofener and W. Klopper, Theor. Chem. Acc. 117, 587 (2007).
        Ce-Lu : J. Chmela and M. E. Harding, Mol. Phys. (2018).

================================================================================
                                        WARNINGS
                       Please study these warnings very carefully!
================================================================================


WARNING: your system is open-shell and RHF/RKS was chosen
  ===> : WILL SWITCH to UHF/UKS


WARNING: The frozen-core approximation for MP2-gradient calculations is turned on by default.

WARNING: The environment variable RSH_COMMAND is not set!
  ===> : All Displacements for the Numerical Hessian or Gradient calculation
         will be started on localhost

WARNING: Geometry Optimization
  ===> : Switching off AutoStart
         For restart on a previous wavefunction, please use MOREAD

WARNING: The frozen-core approximation is turned on by default for 
         the MP2 part of double-hybrid DFT.

================================================================================
                                       INPUT FILE
================================================================================
NAME = neb.inp
|  1> % MaxCore 6000
|  2> ! PAL8
|  3> ! REVDSD-PBEP86-D4/2021 def2-TZVPP def2-TZVPP/c
|  4> ! VeryTightSCF DefGrid3
|  5> ! Zoom-NEB-TS
|  6> ! NumFreq
|  7> 
|  8> %neb
|  9>     neb_end_xyzfile "neb_end.xyz" 
| 10> end
| 11> %geom
| 12>    MaxIter        1000
| 13>    Convergence    Tight
| 14> end
| 15> 
| 16> * xyzfile 0 2 neb_start.xyz
| 17> 
| 18>                          ****END OF INPUT****
================================================================================


--------------------------------------------------------------------------------
                        Nudged Elastic Band Calculation
--------------------------------------------------------------------------------

Number of images (incl. end points)     ....  10
Number of intermediate images           ....  8
Number of optimized images              ....  8
Optimization of end points before NEB   ....  NO
Use existing gbw files for MO input     ....  NO
Number of atoms                         ....  15
Number of (active) degrees of freedom   ....  45
Constrained atoms                       ....  None

-----------------------------------------
  REACTANT (ANGSTROEM)
-----------------------------------------
C     -0.353172     1.183173     0.518713 
C     -1.260625     0.879946    -0.414256 
H     -0.152911     2.197246     0.862512 
C     -1.293925    -0.593283    -0.709580 
H     -1.879052     1.589030    -0.952791 
C     -0.500578    -1.196279     0.477947 
H     -0.809428    -0.790891    -1.675949 
H     -2.311674    -0.978844    -0.775529 
C      0.381667    -0.042758     0.989626 
H      0.087222    -2.066123     0.204748 
H     -1.215046    -1.489506     1.255415 
H      1.389108    -0.089541     0.488216 
H      0.587803    -0.062012     2.061855 
O      2.619411    -0.041741    -0.742885 
H      2.184161     0.678789    -1.170419 

-----------------------------------------
  PRODUCT (ANGSTROEM)
-----------------------------------------
C     -0.359535     1.191468     0.477949 
C     -1.298747     0.888749    -0.433607 
H     -0.099840     2.179778     0.816681 
C     -1.342677    -0.595790    -0.709888 
H     -1.925518     1.613086    -0.934696 
C     -0.491861    -1.180311     0.430442 
H     -0.901634    -0.812681    -1.686498 
H     -2.357612    -1.001221    -0.730560 
C      0.320073    -0.001200     0.924217 
H      0.115365    -2.039740     0.129957 
H     -1.138979    -1.506890     1.248210 
H      1.606247    -0.049484     0.146242 
H      0.765998    -0.045324     1.911248 
O      2.382427    -0.070726    -0.432959 
H      2.027633     0.220512    -1.302346 



----------------------
NEB settings
----------------------
Method type                             ....  auto zoom
Threshold for climbing image            ....  2.00e-02 Eh/Bohr 
Threshold for zoom                      ....  4.00e-03 Eh/Bohr 
  Auto selection                        ....  YES 
  Fraction of barrier to be incl.        ....  0.50 
  Selection offset from CI              ....  1 
Free endpoints                          ....  off 
Tangent type                            ....  improved 
Number of intermediate images           ....  8 
Number of images free to move           ....  8 
Spring type for image distribution      ....  distance between adjacent images 
Spring constant                         ....  energy weighted (0.0100 -to- 0.1000) Eh/Bohr^2 
Spring force perp. to the path          ....  none 
Generation of initial path              ....  image dependent pair potential 
Initial path via TS guess               ....  off 

Minimization of RMSD: Rotation          ....  always 
Minimization of RMSD: Translation type  ....  centroid 
Center fixed to origin                  ....  true 
Remove external force                   ....  true 

Reparametrization of the path           ....  off 
Convergence thresholds:
Convergence monitored for               ....  all images
Scaling factor                          ....  10.00

Convergence parameters for regular images:
               Max(|Fp|)                ....  2.00e-02 Eh/Bohr
               RMS(Fp)                  ....  1.00e-02 Eh/Bohr

Convergence parameters for climbing image:
               Max(|F|)                 ....  2.00e-03 Eh/Bohr
               RMS(F)                   ....  1.00e-03 Eh/Bohr
Optimization method:
Method                                  ....  L-BFGS
Max. iterations                         ....  500 
Step size                               ....  1.00 
Maximum allowed step size               ....  0.10 Bohr

LBFGS parameters: 
               Memory                   ....  20 
               Initial step size        ....  0.0010 
               Estimate curvature       ....  YES 
               Reset on maxmove         ....  YES 
               Reparam. on reset        ....  NO 
Generation of  the initial path:
Two fragments detected in initial structure. Preparing initial structure... Done
Two fragments detected in initial structure. Preparing initial structure... Done
Minimize RMSD between reactant and product configurations     .... done
       RMSD before minimization         ....  0.2321 Bohr
       RMSD after minimization          ....  0.2121 Bohr
Performing linear interpolation         ....  done
Generating initial path 1 out of 129 -> Success!
Displacement along initial path:              1.4301 Bohr
Writing initial trajectory to file      ....  neb_initial_path_trj.xyz



----------------------
FIRST NEB OPTIMIZATION
----------------------

Following output files will be written:
Energy profile during opt. written to    ....  neb.interp
Optimization log-file                    ....  neb.NEB.log
Current trajectory will be written to    ....  neb_MEP_trj.xyz
       and to allxyz file                ....  neb_MEP.allxyz
       and individual images to xyz file ....  neb_im{NIm}.xyz
Trajectory history will be written to    ....  neb_MEP_ALL_trj.xyz
Converged CI will be written to          ....  neb_NEB-CI_converged.xyz
Converged TS will be written to          ....  neb_NEB-TS_converged.xyz

Single point energy and gradient calculation of reactant and
product configurations (have to be performed only once)
Properties of fixed NEB end points:
               Reactant:
                         E               ....   -270.657930 Eh
                         RMS(F)          ....      0.006515 Eh/Bohr
                         MAX(|F|)        ....      0.021183 Eh/Bohr
      Warning: Reactant seems to be less converged than convergence tolerances.
               You might want to use free end NEB or preopt_ends true.
               Product:
                         E               ....   -270.686317 Eh
                         RMS(F)          ....      0.011915 Eh/Bohr
                         MAX(|F|)        ....      0.049914 Eh/Bohr
      Warning: Product seems to be less converged than convergence tolerances.
               You might want to use free end NEB or preopt_ends true.



Starting iterations:

Optim.  Iteration  HEI  E(HEI)-E(0)  max(|Fp|)   RMS(Fp)    dS
Switch-on CI threshold               0.020000 
   LBFGS     0      3    0.004241    0.040864   0.006697  1.4301       
   LBFGS     1      3    0.003049    0.031417   0.006222  1.6007       
   LBFGS     2      3    0.002523    0.024095   0.005023  1.9079       
   LBFGS     3      3    0.001740    0.015664   0.002800  1.9297       

Image  3 will be converted to a climbing image in the next iteration (max(|Fp|) < 0.0200) 

Optim.  Iteration  CI   E(CI)-E(0)   max(|Fp|)   RMS(Fp)    dS     max(|FCI|)   RMS(FCI)
Convergence thresholds                                               0.004000    0.002000 
   LBFGS     4      3    0.001579    0.012850   0.002423  2.0120    0.006059    0.002162       
   LBFGS     5      3    0.001535    0.009952   0.001965  2.0829    0.006668    0.002107       
   LBFGS     6      3    0.001406    0.013073   0.002045  2.3414    0.004029    0.001500       
   LBFGS     7      3    0.001384    0.022417   0.002708  2.6795    0.005940    0.001796       
   LBFGS     8      3    0.001337    0.005334   0.000976  2.7978    0.001773    0.000685       

                                .--------------------.
          ----------------------| CI-NEB convergence |-------------------------
          Item                value                   Tolerance       Converged
          ---------------------------------------------------------------------
          RMS(FCI)            0.0006852291            0.0020000000      YES
          MAX(|FCI|)          0.0017727052            0.0040000000      YES
          ---------------------------------------------------------------------

The climbing image has converged successfully to a saddle point in 8 iterations!
 The regular images might only be partially converged to the MEP. 

---------------------------------------------------------------
                 STARTING SECOND NEB OPTIMIZATION         
---------------------------------------------------------------
            Summary and selection of zoom region 
              (the zoom region is denoted by *)
               Im.  S(bohr)   E(Eh)     dE(Eh)
                0    0.00   -270.6579    0.000
                1    0.36   -270.6579    0.000
                2    0.51   -270.6570    0.001*
                3    0.63   -270.6566    0.001*
                4    0.72   -270.6570    0.001*
                5    0.83   -270.6595   -0.002
                6    1.26   -270.6876   -0.030
                7    1.63   -270.7025   -0.045
                8    2.33   -270.7035   -0.046
                9    2.80   -270.6863   -0.028
  => Initial length of the zoom path           ....  0.2081 Bohr 
  => Initial zoom traj. is written to          ....  neb_zoom_initial_path
  => Energy profile will be written to         ....  neb_zoom.interp
Optimization log-file appended to       ....  neb.NEB.log
Current trajectory will be written to    ....  neb_MEP_trj.xyz
       and written to allxyz file        ....  neb_MEP_zoom.allxyz
       and individual images to xyz file ....  neb_im{NIm}.xyz
Trajectory history will be appended to   ....  neb_MEP_ALL_trj.xyz
Converged CI will be written to          ....  neb_NEB-CI_converged.xyz
Converged TS will be written to          ....  neb_NEB-TS_converged.xyz



Starting iterations:

Optim.  Iteration  HEI  E(HEI)-E(0)  max(|Fp|)   RMS(Fp)    dS
Switch-on CI threshold               0.020000 
   LBFGS     8      4    0.000375    0.002135   0.000615  0.2081       

Image  4 will be converted to a climbing image in the next iteration (max(|Fp|) < 0.0200) 

Optim.  Iteration  CI   E(CI)-E(0)   max(|Fp|)   RMS(Fp)    dS     max(|FCI|)   RMS(FCI)
Convergence thresholds               0.020000   0.010000            0.002000    0.001000 
   LBFGS     9      4    0.000367    0.002324   0.000495  0.2082    0.002052    0.000591       
   LBFGS    10      4    0.000357    0.001983   0.000366  0.2082    0.001765    0.000405       

                                .--------------------.
          ----------------------| CI-NEB convergence |-------------------------
          Item                value                   Tolerance       Converged
          ---------------------------------------------------------------------
          RMS(Fp)             0.0003658183            0.0100000000      YES
          MAX(|Fp|)           0.0019834013            0.0200000000      YES
          RMS(FCI)            0.0004048536            0.0010000000      YES
          MAX(|FCI|)          0.0017647820            0.0020000000      YES
          ---------------------------------------------------------------------

The elastic band and climbing image have converged successfully to a MEP in 10 iterations!


                    *********************H U R R A Y*********************
                    ***        THE NEB OPTIMIZATION HAS CONVERGED     ***
                    *****************************************************



Note that paths from both the first and secondary NEB run have been concatenated for the following report (with a total of 15) images:

---------------------------------------------------------------
                         PATH SUMMARY              
---------------------------------------------------------------
All forces in Eh/Bohr.

Image Dist.(Ang.)    E(Eh)   dE(kcal/mol)  max(|Fp|)  RMS(Fp)
  0     0.000    -270.65793      0.00       0.02172   0.00651
  1     0.188    -270.65786      0.04       0.00217   0.00077
  2     0.271    -270.65699      0.59       0.00190   0.00041
  3     0.288    -270.65684      0.69       0.00198   0.00043
  4     0.304    -270.65673      0.75       0.00198   0.00043
  5     0.319    -270.65666      0.80       0.00190   0.00042
  6     0.334    -270.65663      0.82       0.00176   0.00040 <= CI
  7     0.349    -270.65666      0.80       0.00178   0.00043
  8     0.364    -270.65678      0.72       0.00175   0.00045
  9     0.381    -270.65704      0.56       0.00173   0.00048
 10     0.442    -270.65946     -0.96       0.00507   0.00174
 11     0.664    -270.68759    -18.61       0.00533   0.00179
 12     0.864    -270.70246    -27.94       0.00352   0.00111
 13     1.232    -270.70352    -28.61       0.00316   0.00120
 14     1.481    -270.68632    -17.81       0.02476   0.00809

Straight line distance between images along the path:
        D( 0- 1) =   0.1881 Ang.
        D( 1- 2) =   0.0829 Ang.
        D( 2- 3) =   0.0173 Ang.
        D( 3- 4) =   0.0153 Ang.
        D( 4- 5) =   0.0151 Ang.
        D( 5- 6) =   0.0153 Ang.
        D( 6- 7) =   0.0151 Ang.
        D( 7- 8) =   0.0147 Ang.
        D( 8- 9) =   0.0173 Ang.
        D( 9-10) =   0.0607 Ang.
        D(10-11) =   0.2227 Ang.
        D(11-12) =   0.1999 Ang.
        D(12-13) =   0.3675 Ang.
        D(13-14) =   0.2488 Ang.

---------------------------------------------------------------
               INFORMATION ABOUT SADDLE POINT     
---------------------------------------------------------------

Climbing image                            ....  6 
Energy                                    ....  -270.65663007 Eh
Max. abs. force                           ....  1.7648e-03 Eh/Bohr

-----------------------------------------
  SADDLE POINT (ANGSTROEM)
-----------------------------------------
C     -0.192114     1.251231     0.484889 
C     -1.100827     0.945201    -0.444649 
H      0.024099     2.248477     0.845828 
C     -1.121507    -0.533434    -0.744011 
H     -1.730379     1.663011    -0.955274 
C     -0.309875    -1.130666     0.424393 
H     -0.641821    -0.732840    -1.708829 
H     -2.134340    -0.937287    -0.803262 
C      0.551844     0.032147     0.928847 
H      0.279351    -2.003382     0.141735 
H     -0.994857    -1.430757     1.221725 
H      1.576247     0.007000     0.386308 
H      0.817604    -0.005696     1.986356 
O      2.692505     0.006330    -0.566599 
H      2.284070     0.620664    -1.197456 

-----------------------------------------
  FORCES (Eh/Bohr)
-----------------------------------------
C     -0.000165    -0.000462     0.000105 
C     -0.000287     0.000235    -0.000023 
H      0.000303     0.000205    -0.000371 
C     -0.000084     0.000029     0.000012 
H     -0.000388     0.000112    -0.000003 
C      0.000123     0.000057     0.000032 
H      0.000048    -0.000059    -0.000293 
H     -0.000013    -0.000230    -0.000138 
C      0.000029     0.000253     0.000203 
H     -0.000058     0.000480    -0.000200 
H     -0.000131    -0.000096     0.000189 
H      0.000907    -0.000035    -0.000354 
H     -0.000102    -0.000053     0.000106 
O      0.000188     0.000261    -0.001035 
H     -0.000386    -0.000713     0.001765 

-----------------------------------------
  UNIT TANGENT
-----------------------------------------
C      0.020882    -0.011534    -0.018926 
C      0.022908    -0.014674    -0.009623 
H      0.023235    -0.013903    -0.010348 
C      0.007239    -0.000761    -0.005469 
H      0.011290    -0.010953     0.007660 
C      0.024686     0.001090    -0.032973 
H      0.001789     0.002407    -0.003327 
H      0.003610     0.010126     0.008098 
C     -0.097162     0.021309    -0.015628 
H      0.022034    -0.006092     0.001441 
H      0.030474     0.018202     0.000883 
H      0.333511     0.037698    -0.461577 
H      0.201087     0.002799    -0.097286 
O     -0.585314    -0.024646     0.493051 
H     -0.020272    -0.011068     0.144023 
 => Unit tangent is an approximation to the TS mode at the saddle point

Next a TS optimization is performed on the CI from the NEB run.

         *************************************************************
         *                       TS OPTIMIZATION                     *
         *************************************************************


Following output files will be written:
Converged TS will be written to          ....  neb_NEB-TS_converged.xyz
                                         ....  neb.xyz
Current trajectory will be written to    ....  neb_trj.xyz
Initial Hessian will be stored in        ....  neb.appr.hess
 (Almloef) Geometry optimization settings:
Update method            Update   .... Bofill
Choice of coordinates    CoordSys .... (2022) Redundant Internals
Initial Hessian          InHess   .... Read
Max. no of cycles        MaxIter  .... 1000

Convergence Tolerances:
Energy Change            TolE     ....  1.0000e-06 Eh
Max. Gradient            TolMAXG  ....  1.0000e-04 Eh/bohr
RMS Gradient             TolRMSG  ....  3.0000e-05 Eh/bohr
Max. Displacement        TolMAXD  ....  1.0000e-03 bohr
RMS Displacement         TolRMSD  ....  6.0000e-04 bohr
Strict Convergence                .... False

------------------------------------------------------------------------------
                        ORCA OPTIMIZATION COORDINATE SETUP
------------------------------------------------------------------------------

The optimization will be done in redundant internal coordinates (2022)
Making redundant internal coordinates   ...  (2022 redundants) done
Following TS mode number                ...     0
TS-active-atoms for coordinate setup... 11 13 
Evaluating the initial hessian          ... (Reading Exact Hessian)...  
InHessName: neb.appr.hess	The file <neb.appr.hess> is opened as a .hess file
done
done
Evaluating the coordinates              ...  done
Calculating the B-matrix                .... done
Calculating the G-matrix                .... done
The number of degrees of freedom        ....   78

    -----------------------------------------------------------------
                    Redundant Internal Coordinates


    -----------------------------------------------------------------
         Definition                    Initial Value    d2E/dq (diagonal element)
    -----------------------------------------------------------------
      1. B(C   1,C   0)                  1.3355         0.666464   
      2. B(H   2,C   0)                  1.0824         0.370379   
      3. B(C   3,C   1)                  1.5088         0.357690   
      4. B(H   4,C   1)                  1.0827         0.369921   
      5. B(C   5,C   3)                  1.5429         0.323940   
      6. B(H   6,C   3)                  1.0958         0.352548   
      7. B(H   7,C   3)                  1.0920         0.357485   
      8. B(C   8,C   5)                  1.5327         0.329289   
      9. B(C   8,C   0)                  1.4956         0.372118   
     10. B(H   9,C   5)                  1.0903         0.359846   
     11. B(H  10,C   5)                  1.0932         0.356353   
     12. B(H  11,C   8)                  1.1595         0.409851   
     13. B(H  12,C   8)                  1.0910         0.359019   
     14. B(O  13,H  11)                  1.4677         0.018846   
     15. B(H  14,O  13)                  0.9707         0.318815   
     16. B(H  14,H  11)                  1.8401         0.066301   
     17. A(H   2,C   0,C   8)          123.5500         0.201233   
     18. A(C   1,C   0,H   2)          125.3922         0.206757   
     19. A(C   1,C   0,C   8)          110.9964         0.117655   
     20. A(C   0,C   1,H   4)          124.8883         0.210196   
     21. A(C   3,C   1,H   4)          123.2416         0.203712   
     22. A(C   0,C   1,C   3)          111.8396         0.131553   
     23. A(C   1,C   3,H   6)          110.3065         0.075057   
     24. A(C   5,C   3,H   6)          111.4721         0.068797   
     25. A(C   1,C   3,C   5)          102.8197         0.109222   
     26. A(H   6,C   3,H   7)          106.9148         0.061147   
     27. A(C   5,C   3,H   7)          112.6959         0.106471   
     28. A(C   1,C   3,H   7)          112.7011         0.081198   
     29. A(C   3,C   5,H   9)          113.4408         0.083389   
     30. A(C   3,C   5,C   8)          104.5557         0.098703   
     31. A(C   8,C   5,H  10)          108.6933         0.222631   
     32. A(C   3,C   5,H  10)          109.2069         0.088252   
     33. A(C   8,C   5,H   9)          112.8773         0.067199   
     34. A(H   9,C   5,H  10)          107.9387         0.097944   
     35. A(C   0,C   8,C   5)          103.9480         0.075456   
     36. A(H  11,C   8,H  12)          103.7434         0.107058   
     37. A(C   5,C   8,H  12)          115.4449         0.073937   
     38. A(C   0,C   8,H  12)          115.9230         0.125341   
     39. A(C   5,C   8,H  11)          109.0425         0.065078   
     40. A(C   0,C   8,H  11)          108.5583         0.055351   
     41. A(O  13,H  11,H  14)           31.6537         0.035766   
     42. A(C   8,H  11,H  14)          137.3378         0.069732   
     43. A(C   8,H  11,O  13)          167.3625         0.060694   
     44. A(H  11,O  13,H  14)           95.8343         0.051806   
     45. A(H  11,H  14,O  13)           52.5120         0.018370   
     46. D(H   4,C   1,C   0,H   2)      0.3325         0.014102   
     47. D(H   4,C   1,C   0,C   8)   -176.8917         0.009550   
     48. D(C   3,C   1,C   0,H   2)    178.3753         0.014664   
     49. D(C   3,C   1,C   0,C   8)      1.1511         0.015367   
     50. D(C   5,C   3,C   1,H   4)   -168.0953         0.010948   
     51. D(H   6,C   3,C   1,C   0)   -105.1548         0.038979   
     52. D(H   7,C   3,C   1,C   0)    135.4336         0.062742   
     53. D(H   6,C   3,C   1,H   4)     72.9257         0.027974   
     54. D(C   5,C   3,C   1,C   0)     13.8242         0.016040   
     55. D(H   9,C   5,C   3,H   6)    -27.6741         0.039943   
     56. D(C   8,C   5,C   3,H   7)   -144.0571         0.041249   
     57. D(C   8,C   5,C   3,H   6)     95.7178         0.042520   
     58. D(C   8,C   5,C   3,C   1)    -22.4441         0.017074   
     59. D(H   9,C   5,C   3,H   7)     92.5510         0.039386   
     60. D(H   9,C   5,C   3,C   1)   -145.8361         0.036561   
     61. D(H  11,C   8,C   5,H  10)    151.1636         0.039177   
     62. D(H  11,C   8,C   5,H   9)     31.4491         0.038565   
     63. D(H  11,C   8,C   5,C   3)    -92.3060         0.034666   
     64. D(C   0,C   8,C   5,H   9)    147.0849         0.043101   
     65. D(C   0,C   8,C   5,C   3)     23.3298         0.016447   
     66. D(H  12,C   8,C   0,C   1)   -143.5957         0.060643   
     67. D(C   0,C   8,C   5,H  10)    -93.2007         0.040277   
     68. D(H  11,C   8,C   0,H   2)    -77.1013         0.026444   
     69. D(H  11,C   8,C   0,C   1)    100.1836         0.034130   
     70. D(C   5,C   8,C   0,H   2)    166.9221         0.013170   
     71. D(C   5,C   8,C   0,C   1)    -15.7930         0.014473   
     72. D(H  14,H  11,C   8,C   0)    -27.4637         0.033616   
     73. D(O  13,H  11,C   8,H  12)   -176.9190         0.054373   
     74. D(O  13,H  11,C   8,C   5)     59.5540         0.036563   
     75. D(H  14,H  11,C   8,C   5)     85.1714         0.027809   
     76. D(O  13,H  11,C   8,C   0)    -53.0811         0.036751   
     77. D(H  14,O  13,H  11,C   8)     33.9399         0.016076   
     78. D(O  13,H  14,H  11,C   8)   -169.6157         0.031658   
    -----------------------------------------------------------------

Number of atoms                         .... 15
Number of degrees of freedom            .... 78


         *************************************************************
         *                GEOMETRY OPTIMIZATION CYCLE   1            *
         *************************************************************


           ************************************************************
           *        Program running with 8 parallel MPI-processes     *
           *              working on a common directory               *
           ************************************************************
------------------------------------------------------------------------------
                             ORCA STARTUP CALCULATIONS
                           -- RI-GTO INTEGRALS CHOSEN --
------------------------------------------------------------------------------
------------------------------------------------------------------------------
                   ___                                                        
                  /   \      - P O W E R E D   B Y -                         
                 /     \                                                     
                 |  |  |   _    _      __       _____    __    __             
                 |  |  |  | |  | |    /  \     |  _  \  |  |  /  |          
                  \  \/   | |  | |   /    \    | | | |  |  | /  /          
                 / \  \   | |__| |  /  /\  \   | |_| |  |  |/  /          
                |  |  |   |  __  | /  /__\  \  |    /   |      \           
                |  |  |   | |  | | |   __   |  |    \   |  |\   \          
                \     /   | |  | | |  |  |  |  | |\  \  |  | \   \       
                 \___/    |_|  |_| |__|  |__|  |_| \__\ |__|  \__/        
                                                                              
                      - O R C A' S   B I G   F R I E N D -                    
                                      &                                       
                       - I N T E G R A L  F E E D E R -                       
                                                                              
 v1 FN, 2020, v2 2021, v3 2022-2024                                           
------------------------------------------------------------------------------


----------------------
SHARK INTEGRAL PACKAGE
----------------------

Number of atoms                             ...     15
Number of basis functions                   ...    312
Number of shells                            ...    120
Maximum angular momentum                    ...      3
Integral batch strategy                     ... SHARK/LIBINT Hybrid
RI-J (if used) integral strategy            ... SPLIT-RIJ (Revised 2003 algorithm where possible)
Printlevel                                  ...      1
Contraction scheme used                     ... SEGMENTED contraction
Prescreening option                         ... SCHWARTZ
   Thresh                                   ... 1.000e-12
   Tcut                                     ... 1.000e-14
   Tpresel                                  ... 1.000e-14 
Coulomb Range Separation                    ... NOT USED
Exchange Range Separation                   ... NOT USED
Multipole approximations                    ... NOT USED
Finite Nucleus Model                        ... NOT USED
CABS basis                                  ... NOT available
Auxiliary Coulomb fitting basis             ... AVAILABLE
   # of basis functions in Aux-J            ...    393
   # of shells in Aux-J                     ...    135
   Maximum angular momentum in Aux-J        ...      4
Auxiliary J/K fitting basis                 ... NOT available
Auxiliary Correlation fitting basis         ... AVAILABLE
   # of basis functions in Aux-C            ...    726
   # of shells in Aux-C                     ...    222
   Maximum angular momentum in Aux-C        ...      4
Auxiliary 'external' fitting basis          ... NOT available

Checking pre-screening integrals            ... done (  0.0 sec) Dimension = 120
   => SHARK Basis and OBASIS are compatible. Storing Pre-screening
Shell pair information
Shell pair cut-off parameter TPreSel        ...   1.0e-14
Total number of shell pairs                 ...      7260
Shell pairs after pre-screening             ...      6936
Total number of primitive shell pairs       ...     18687
Primitive shell pairs kept                  ...     14513
          la=0 lb=0:   1544 shell pairs
          la=1 lb=0:   1961 shell pairs
          la=1 lb=1:    648 shell pairs
          la=2 lb=0:   1137 shell pairs
          la=2 lb=1:    735 shell pairs
          la=2 lb=2:    224 shell pairs
          la=3 lb=0:    330 shell pairs
          la=3 lb=1:    213 shell pairs
          la=3 lb=2:    123 shell pairs
          la=3 lb=3:     21 shell pairs

Checking whether 4 symmetric matrices of dimension 312 fit in memory
:Max Core in MB      =   6000.00
 MB in use           =     13.49
 MB left             =   5986.51
 MB needed           =      1.49
 Data fit in memory  = YES
Calculating RI/J V-Matrix + Cholesky decomp.... done (  0.0 sec)
Calculating RI/C V-Matrix + Cholesky decomp.... done (  0.0 sec)
Calculating Nuclear repulsion               ... done (  0.0 sec) ENN=    230.863149048483 Eh

Diagonalization of the overlap matrix:
Smallest eigenvalue                        ... 7.750e-05
Time for diagonalization                   ...    0.007 sec
Threshold for overlap eigenvalues          ... 1.000e-07
Number of eigenvalues below threshold      ... 0
Time for construction of square roots      ...    0.004 sec
Total time needed                          ...    0.012 sec

-------------------
DFT GRID GENERATION
-------------------

General Integration Accuracy     IntAcc      ... 4.959
Radial Grid Type                 RadialGrid  ... OptM3 with GC (2021)
Angular Grid (max. ang.)         AngularGrid ... 6 (Lebedev-590)
Angular grid pruning method      GridPruning ... 4 (adaptive)
Weight generation scheme         WeightScheme... mBecke (2022)
Basis function cutoff            BFCut       ... 1.0000e-12
Integration weight cutoff        WCut        ... 1.0000e-14
Partially contracted basis set               ... off
Rotationally invariant grid construction     ... off
Angular grids for H and He will be reduced by one unit

Total number of grid points                  ...   164419
Total number of batches                      ...     2577
Average number of points per batch           ...       63
Average number of grid points per atom       ...    10961

--------------------
COSX GRID GENERATION
--------------------

GRIDX 1
-------
General Integration Accuracy     IntAcc      ... 4.020
Radial Grid Type                 RadialGrid  ... OptM3 with GC (2021)
Angular Grid (max. ang.)         AngularGrid ... 2 (Lebedev-110)
Angular grid pruning method      GridPruning ... 4 (adaptive)
Weight generation scheme         WeightScheme... mBecke (2022)
Basis function cutoff            BFCut       ... 1.0000e-12
Integration weight cutoff        WCut        ... 1.0000e-14
Partially contracted basis set               ... on
Rotationally invariant grid construction     ... off
Angular grids for H and He will be reduced by one unit

Total number of grid points                  ...    17682
Total number of batches                      ...      145
Average number of points per batch           ...      121
Average number of grid points per atom       ...     1179
UseSFitting                                  ... on

GRIDX 2
-------
General Integration Accuracy     IntAcc      ... 4.338
Radial Grid Type                 RadialGrid  ... OptM3 with GC (2021)
Angular Grid (max. ang.)         AngularGrid ... 3 (Lebedev-194)
Angular grid pruning method      GridPruning ... 4 (adaptive)
Weight generation scheme         WeightScheme... mBecke (2022)
Basis function cutoff            BFCut       ... 1.0000e-12
Integration weight cutoff        WCut        ... 1.0000e-14
Partially contracted basis set               ... on
Rotationally invariant grid construction     ... off
Angular grids for H and He will be reduced by one unit

Total number of grid points                  ...    38744
Total number of batches                      ...      311
Average number of points per batch           ...      124
Average number of grid points per atom       ...     2583
UseSFitting                                  ... on

GRIDX 3
-------
General Integration Accuracy     IntAcc      ... 4.871
Radial Grid Type                 RadialGrid  ... OptM3 with GC (2021)
Angular Grid (max. ang.)         AngularGrid ... 4 (Lebedev-302)
Angular grid pruning method      GridPruning ... 4 (adaptive)
Weight generation scheme         WeightScheme... mBecke (2022)
Basis function cutoff            BFCut       ... 1.0000e-12
Integration weight cutoff        WCut        ... 1.0000e-14
Partially contracted basis set               ... on
Rotationally invariant grid construction     ... off
Angular grids for H and He will be reduced by one unit

Total number of grid points                  ...    75820
Total number of batches                      ...      601
Average number of points per batch           ...      126
Average number of grid points per atom       ...     5055
UseSFitting                                  ... on
Grids setup in   1.5 sec
Initializing property integral containers    ... done (  0.0 sec)

SHARK setup successfully completed in   1.6 seconds

Maximum memory used throughout the entire STARTUP-calculation: 43.4 MB


           ************************************************************
           *        Program running with 8 parallel MPI-processes     *
           *              working on a common directory               *
           ************************************************************
-------------------------------------------------------------------------------
                                 ORCA GUESS
                   Start orbitals & Density for SCF / CASSCF
-------------------------------------------------------------------------------

------------
SCF SETTINGS
------------
Hamiltonian:
 Density Functional     Method          .... DFT(GTOs)
 Exchange Functional    Exchange        .... PBE
   PBE kappa parameter   XKappa         ....  0.804000
   PBE mue parameter    XMuePBE         ....  0.219520
 Correlation Functional Correlation     .... P86
 LDA part of GGA corr.  LDAOpt          .... VWN-5
 Gradients option       PostSCFGGA      .... off
 Hybrid DFT is turned on
   Fraction HF Exchange ScalHFX         ....  0.690000
   Scaling of DF-GGA-X  ScalDFX         ....  0.310000
   Scaling of DF-GGA-C  ScalDFC         ....  0.422400
   Scaling of DF-LDA-C  ScalLDAC        ....  0.422400
   Perturbative correction              ....  1.000000
 RI-approximation to the Coulomb term is turned on
   Number of AuxJ basis functions       .... 393
   RIJ-COSX (HFX calculated with COS-X)).... on


General Settings:
 Integral files         IntName         .... neb
 Hartree-Fock type      HFTyp           .... UHF
 Total Charge           Charge          ....    0
 Multiplicity           Mult            ....    2
 Number of Electrons    NEL             ....   47
 Basis Dimension        Dim             ....  312
 Nuclear Repulsion      ENuc            ....    230.8631490485 Eh

Convergence Acceleration:
 AO-DIIS                CNVDIIS         .... on
   Start iteration      DIISMaxIt       ....    12
   Startup error        DIISStart       ....  0.200000
   # of expansion vecs  DIISMaxEq       ....     5
   Bias factor          DIISBfac        ....   1.050
   Max. coefficient     DIISMaxC        ....  10.000
 MO-DIIS                CNVKDIIS        .... off
 Trust-Rad. Augm. Hess. CNVTRAH         .... auto
   Auto Start mean grad. ratio tolernc. ....  1.125000
   Auto Start start iteration           ....     1
   Auto Start num. interpolation iter.  ....    10
   Max. Number of Micro iterations      ....    24
   Max. Number of Macro iterations      .... Maxiter - #DIIS iter
   Number of Davidson start vectors     ....     2
   Converg. threshold    (grad. norm)   ....   2.000e-06
   Grad. Scal. Fac. for Micro threshold ....   0.100
   Minimum threshold for Micro iter.    ....   1.000e-02
   NR start threshold (gradient norm)   ....   1.000e-04
   Initial trust radius                 ....   0.400
   Minimum AH scaling param. (alpha)    ....   1.000
   Maximum AH scaling param. (alpha)    .... 1000.000
   Quad. conv. algorithm                .... NR
   White noise on init. David. guess    .... on
   Maximum white noise                  ....   0.010
   Pseudo random numbers                .... off
   Inactive MOs                         .... canonical
   Orbital update algorithm             .... Taylor
   Preconditioner                       .... Diag
   Full preconditioner red. dimension   ....   250
 SOSCF                 CNVSOSCF           .... on
   Start iteration     SOSCFMaxIt         ....   150
   Startup grad/error  SOSCFStart         ....  0.003300
   Hessian update      SOSCFHessUp        .... L-BFGS
   Autom. constraints  SOSCFAutoConstrain .... off
 Level Shifting         CNVShift        .... on
   Level shift para.    LevelShift      ....    0.2500
   Turn off err/grad.   ShiftErr        ....    0.0010
 Zerner damping         CNVZerner       .... off
 Static damping         CNVDamp         .... on
   Fraction old density DampFac         ....    0.7000
   Max. Damping (<1)    DampMax         ....    0.9800
   Min. Damping (>=0)   DampMin         ....    0.0000
   Turn off err/grad.   DampErr         ....    0.1000

SCF Procedure:
 Maximum # iterations   MaxIter         ....   125
 SCF integral mode      SCFMode         .... Direct
   Integral package                     .... SHARK and LIBINT hybrid scheme
 Reset frequency        DirectResetFreq ....    20
 Integral Threshold     Thresh          ....  1.000e-12 Eh
 Primitive CutOff       TCut            ....  1.000e-14 Eh

Convergence Tolerance:
 Convergence Check Mode ConvCheckMode   .... Total+1el-Energy
 Convergence forced     ConvForced      .... 0
 Energy Change          TolE            ....  1.000e-09 Eh
 1-El. energy change                    ....  1.000e-06 Eh
 Orbital Gradient       TolG            ....  2.000e-06
 Orbital Rotation angle TolX            ....  2.000e-06
 DIIS Error             TolErr          ....  1.000e-08

---------------------
INITIAL GUESS: MOREAD
---------------------
Guess MOs are being read from file: neb.gbw
Input Geometry matches current geometry (good)
Input basis set matches current basis set (good)
MOs were renormalized
MOs were reorthogonalized (Cholesky)
                      ------------------
                      INITIAL GUESS DONE (   0.0 sec)
                      ------------------
             **** ENERGY FILE WAS UPDATED (neb.en.tmp) ****
Finished Guess after   2.8 sec
Maximum memory used throughout the entire GUESS-calculation: 19.5 MB


           ************************************************************
           *        Program running with 8 parallel MPI-processes     *
           *              working on a common directory               *
           ************************************************************

-------------------------------------------------------------------------------------------
                                      ORCA LEAN-SCF
                              memory conserving SCF solver
-------------------------------------------------------------------------------------------

----------------------------------------D-I-I-S--------------------------------------------
Iteration    Energy (Eh)           Delta-E    RMSDP     MaxDP     DIISErr   Damp  Time(sec)
-------------------------------------------------------------------------------------------
               ***  Starting incremental Fock matrix formation  ***
                              *** Initializing SOSCF ***
---------------------------------------S-O-S-C-F--------------------------------------
Iteration    Energy (Eh)           Delta-E    RMSDP     MaxDP     MaxGrad    Time(sec)
--------------------------------------------------------------------------------------
    1    -270.0956485244712439     0.00e+00  4.97e-08  9.13e-07  1.79e-07     2.2
               *** Restarting incremental Fock matrix formation ***
    2    -270.0956485244786904    -7.45e-12  3.01e-08  5.16e-07  5.31e-07     2.1
    3    -270.0956485247356795    -2.57e-10  7.06e-08  1.49e-06  4.41e-07     1.1
                 **** Energy Check signals convergence ****

               *****************************************************
               *                     SUCCESS                       *
               *           SCF CONVERGED AFTER   3 CYCLES          *
               *****************************************************

Recomputing exchange energy using gridx3       ... done (    2.975 sec)
Old exchange energy                            :    -25.777360888 Eh
New exchange energy                            :    -25.777364445 Eh
Exchange energy change after final integration :     -0.000003557 Eh
Total energy after final integration           :   -270.095652081 Eh
             **** ENERGY FILE WAS UPDATED (neb.en.tmp) ****

----------------
TOTAL SCF ENERGY
----------------

Total Energy       :       -270.09565208147791 Eh           -7349.67634 eV

Components:
Nuclear Repulsion  :        230.86314904848319 Eh            6282.10566 eV
Electronic Energy  :       -500.95879757332352 Eh          -13631.78191 eV
One Electron Energy:       -823.25663508935475 Eh          -22401.95193 eV
Two Electron Energy:        322.29783751603122 Eh            8770.17003 eV

Virial components:
Potential Energy   :       -539.52705729439890 Eh          -14681.27761 eV
Kinetic Energy     :        269.43140521292105 Eh            7331.60127 eV
Virial Ratio       :          2.00246536541660

DFT components:
N(Alpha)           :       24.000001888168 electrons
N(Beta)            :       23.000001761413 electrons
N(Total)           :       47.000003649581 electrons
E(X)               :      -11.524117139689 Eh       
E(C)               :       -0.711391276547 Eh       
E(XC)              :      -12.235508416236 Eh       

---------------
SCF CONVERGENCE
---------------

  Last Energy change         ...    2.5699e-10  Tolerance :   1.0000e-09
  Last MAX-Density change    ...    1.4917e-06  Tolerance :   1.0000e-08
  Last RMS-Density change    ...    7.0632e-08  Tolerance :   1.0000e-09
  Last DIIS Error            ...    8.8821e-07  Tolerance :   1.0000e-08
  Last Orbital Gradient      ...    4.4139e-07  Tolerance :   2.0000e-06
  Last Orbital Rotation      ...    2.7741e-06  Tolerance :   2.0000e-06


----------------------
UHF SPIN CONTAMINATION
----------------------

Warning: in a DFT calculation there is little theoretical justification to 
         calculate <S**2> as in Hartree-Fock theory. We will do it anyways
         but you should keep in mind that the values have only limited relevance

Expectation value of <S**2>     :     0.780450
Ideal value S*(S+1) for S=0.5   :     0.750000
Deviation                       :     0.030450

----------------
ORBITAL ENERGIES
----------------
                 SPIN UP ORBITALS
  NO   OCC          E(Eh)            E(eV) 
   0   1.0000     -20.053371      -545.6800 
   1   1.0000     -10.820322      -294.4359 
   2   1.0000     -10.817763      -294.3663 
   3   1.0000     -10.814174      -294.2686 
   4   1.0000     -10.813169      -294.2413 
   5   1.0000     -10.809870      -294.1515 
   6   1.0000      -1.232590       -33.5405 
   7   1.0000      -1.033364       -28.1193 
   8   1.0000      -0.876160       -23.8415 
   9   1.0000      -0.870677       -23.6923 
  10   1.0000      -0.716485       -19.4965 
  11   1.0000      -0.661677       -18.0052 
  12   1.0000      -0.621639       -16.9156 
  13   1.0000      -0.607995       -16.5444 
  14   1.0000      -0.584002       -15.8915 
  15   1.0000      -0.553850       -15.0710 
  16   1.0000      -0.483912       -13.1679 
  17   1.0000      -0.472439       -12.8557 
  18   1.0000      -0.461585       -12.5604 
  19   1.0000      -0.447622       -12.1804 
  20   1.0000      -0.444251       -12.0887 
  21   1.0000      -0.431347       -11.7376 
  22   1.0000      -0.413988       -11.2652 
  23   1.0000      -0.305752        -8.3199 
  24   0.0000       0.087991         2.3943 
  25   0.0000       0.099308         2.7023 
  26   0.0000       0.121148         3.2966 
  27   0.0000       0.139036         3.7834 
  28   0.0000       0.142706         3.8832 
  29   0.0000       0.161116         4.3842 
  30   0.0000       0.169930         4.6240 
  31   0.0000       0.173392         4.7182 
  32   0.0000       0.200623         5.4592 
  33   0.0000       0.226836         6.1725 
  34   0.0000       0.249263         6.7828 

                 SPIN DOWN ORBITALS
  NO   OCC          E(Eh)            E(eV) 
   0   1.0000     -20.022361      -544.8361 
   1   1.0000     -10.816354      -294.3280 
   2   1.0000     -10.814657      -294.2818 
   3   1.0000     -10.814174      -294.2686 
   4   1.0000     -10.813502      -294.2504 
   5   1.0000     -10.810166      -294.1596 
   6   1.0000      -1.128530       -30.7089 
   7   1.0000      -1.028885       -27.9974 
   8   1.0000      -0.874420       -23.7942 
   9   1.0000      -0.860838       -23.4246 
  10   1.0000      -0.706607       -19.2278 
  11   1.0000      -0.656431       -17.8624 
  12   1.0000      -0.616623       -16.7792 
  13   1.0000      -0.576815       -15.6959 
  14   1.0000      -0.559150       -15.2152 
  15   1.0000      -0.487297       -13.2600 
  16   1.0000      -0.481034       -13.0896 
  17   1.0000      -0.446284       -12.1440 
  18   1.0000      -0.443141       -12.0585 
  19   1.0000      -0.434808       -11.8317 
  20   1.0000      -0.431380       -11.7384 
  21   1.0000      -0.422949       -11.5090 
  22   1.0000      -0.312774        -8.5110 
  23   0.0000      -0.010793        -0.2937 
  24   0.0000       0.092685         2.5221 
  25   0.0000       0.103289         2.8106 
  26   0.0000       0.123140         3.3508 
  27   0.0000       0.140092         3.8121 
  28   0.0000       0.143017         3.8917 
  29   0.0000       0.162162         4.4127 
  30   0.0000       0.170921         4.6510 
  31   0.0000       0.175204         4.7675 
  32   0.0000       0.201511         5.4834 
  33   0.0000       0.230387         6.2692 
*Only the first 10 virtual orbitals were printed.
-------
TIMINGS
-------

Total SCF time: 0 days 0 hours 0 min 12 sec 

Total time                  ....      12.375 sec
Sum of individual times     ....      11.116 sec  ( 89.8%)

SCF preparation             ....       2.626 sec  ( 21.2%)
Fock matrix formation       ....       8.271 sec  ( 66.8%)
  Startup                   ....       0.008 sec  (  0.1% of F)
  Split-RI-J                ....       0.187 sec  (  2.3% of F)
  Chain of spheres X        ....       7.931 sec  ( 95.9% of F)
  XC integration            ....       1.283 sec  ( 15.5% of F)
    Basis function eval.    ....       0.221 sec  ( 17.2% of XC)
    Density eval.           ....       0.458 sec  ( 35.7% of XC)
    XC-Functional eval.     ....       0.032 sec  (  2.5% of XC)
    XC-Potential eval.      ....       0.450 sec  ( 35.1% of XC)
Diagonalization             ....       0.000 sec  (  0.0%)
Density matrix formation    ....       0.021 sec  (  0.2%)
Total Energy calculation    ....       0.011 sec  (  0.1%)
Population analysis         ....       0.001 sec  (  0.0%)
Orbital Transformation      ....       0.041 sec  (  0.3%)
Orbital Orthonormalization  ....       0.000 sec  (  0.0%)
DIIS solution               ....       0.044 sec  (  0.4%)
SOSCF solution              ....       0.099 sec  (  0.8%)
Finished LeanSCF after  12.4 sec

Maximum memory used throughout the entire LEANSCF-calculation: 30.1 MB


           ************************************************************
           *        Program running with 8 parallel MPI-processes     *
           *              working on a common directory               *
           ************************************************************

------------------------------------------------------------------------------
                                ORCA  MP2 
------------------------------------------------------------------------------

Freezing NCore=12 chemical core electrons

----------------------
RI-MP2 ENERGY+GRADIENT
----------------------
Dimension of the orbital basis            ...  312
Dimension of the AuxC basis               ...  726
Memory devoted to MP2                     ... 6000 MB   
Data format for matrix containers         ... DOUBLE
Compression type for matrix containers    ... UNCOMPRESSED
Scaling for aa/bb pairs                   ...   5.660e-02
Scaling for ab pairs                      ...   5.935e-01
Overall scaling of the MP2 energy         ...   1.000e+00

-----------------------
SHARK RI TRANSFORMATION
-----------------------

Number of basis functions                ...    312
Number of aux functions                  ...    726
Number of operators                      ...      2
Generation of IJK                        ... YES
Generation of IAK                        ... YES
Generation of ABK                        ... NO
Orbital Range Operator  0:    0-  23 to   24- 311

Orbital Range Operator  1:    0-  22 to   23- 311

Aux basis identifier                     ...   AUXC
Contraction scheme used                  ... SEGMENTED
Do orthogonalization                     ... YES
All operator combinations                ... NO
Transpose (ia|K)                         ... NO
Integral generator used                  ... LIBINT
Starting integral generation + trafo... 
Half trafo (segmented) done. Total time =  0.2 sec. integrals=  0.1 sec trafo=  0.1 sec
Integral generation and half transformation done (  0.2 sec)

Reading or making V^(-1/2)          ... done (  0.0 sec)
Sorting IJK integrals               ... done (  0.0 sec)
Sorting IAK integrals               ... done (  0.1 sec)
Sorting IJK integrals               ... done (  0.1 sec)
Sorting IAK integrals               ... done (  0.1 sec)

SHARK RI integral transformation done. Total time =  0.3 sec.

Opening buffers                              ... done
Frozen core precalculation                   ... done

Starting loop over batches of integrals:

Operator 0  - window                       ... (  6- 23)x( 24-311)
Operator 0  - Memory available             ...  6000 MB
Operator 0  - Memory needed per MO         ...   1.6 MB
Operator 0  - Number of orbitals per batch ... 3
Operator 0  - Number of batches            ... 1

OPERATOR  0   PASS   0:  MOs     6 ...    8 +    9 ...   11 +   12 ...   14 +   15 ...   17
                            +   18 ...   20 +   21 ...   23
  Reading integrals       ... ok
  Internal MO   8
Closing buffer GIPV ( 0.03 GB; CompressionRatio= 1.00)

Operator 1  - window                       ... (  6- 22)x( 23-311)
Operator 1  - Memory available             ...  6000 MB
Operator 1  - Memory needed per MO         ...   1.6 MB
Operator 1  - Number of orbitals per batch ... 3
Operator 1  - Number of batches            ... 1

OPERATOR  1   PASS   0:  MOs     6 ...    8 +    9 ...   11 +   12 ...   14 +   15 ...   17
                            +   18 ...   20 +   21 ...   22
  Reading integrals       ... ok
  Internal MO   8
Closing buffer GIPV ( 0.03 GB; CompressionRatio= 1.00)
Time spent in pair loops =     2.064 sec
Deleting buffers (Ka|jb) ...done

Spin-scaled correlation energy components}
 E2 for alpha/alpha pairs :     -0.008451383 Eh
 E2 for beta/beta   pairs :     -0.007709321 Eh
 E2 for alpha/beta  pairs :     -0.537396245 Eh


-----------------------------------------------
 RI-MP2 CORRELATION ENERGY:     -0.553556949 Eh
-----------------------------------------------


---------------------
MP2 DENSITY FORMATION
---------------------

Completing the external part of the density      ... done
Storing the unrelaxed density                    ... done

Re-sorting 3-index density container for op 0    ... done
Re-sorting 3-index density container for op 1    ... done
Computing external part of the Lagrangian        ... done
Calculating the xc-kernel                        ... done
Calculating G(D)                                 ... done
Completing the Lagrangian                        ... done
Solving the Z-vector equations                   ... Using XC Grid                  ... (neb.grid_cpscf.tmp) 
Recalculating density on grid  ... (neb.grho_cpscf0.tmp) done
Calculating the xc-kernel      ... (neb.fxc_cpscf0.tmp) done

-------------------
SHARK CP-SCF DRIVER
-------------------

Dimension of the orbital basis          ...    312
Dimension of the CPSCF-problem          ...  13559
Number of operators                     ...      2
Max. number of iterations               ...    128
Convergence Tolerance                   ... 3.0e-05
Number of perturbations                 ...      1
Perturbation type                       ... REAL

----------------------------
POPLE LINEAR EQUATION SOLVER
----------------------------

  ITERATION   0:   ||err||_max =   5.6305e-02 (   0.6 sec)
  ITERATION   1:   ||err||_max =   3.5073e-02 (   0.6 sec)
  ITERATION   2:   ||err||_max =   2.1468e-02 (   0.6 sec)
  ITERATION   3:   ||err||_max =   2.2629e-02 (   0.6 sec)
  ITERATION   4:   ||err||_max =   1.4844e-02 (   0.6 sec)
  ITERATION   5:   ||err||_max =   8.3011e-03 (   0.6 sec)
  ITERATION   6:   ||err||_max =   3.4685e-03 (   0.6 sec)
  ITERATION   7:   ||err||_max =   2.1043e-03 (   0.6 sec)
  ITERATION   8:   ||err||_max =   9.0325e-04 (   0.6 sec)
  ITERATION   9:   ||err||_max =   5.3817e-04 (   0.6 sec)
  ITERATION  10:   ||err||_max =   2.6947e-04 (   0.6 sec)
  ITERATION  11:   ||err||_max =   1.6920e-04 (   0.6 sec)
  ITERATION  12:   ||err||_max =   1.7315e-04 (   0.6 sec)
  ITERATION  13:   ||err||_max =   1.7017e-04 (   0.6 sec)
  ITERATION  14:   ||err||_max =   8.0620e-05 (   0.6 sec)
  ITERATION  15:   ||err||_max =   2.9454e-05 (   0.6 sec)
done
Finalizing the relaxed density                   ... done
Transforming P to the AO basis                   ... done
Storing the relaxed density                      ... done

------------------------------------
ENERGY WEIGHTED DENSITY FINALIZATION
------------------------------------

Gathering the parts of the W-matrix              ... done
Forming the Z-density                            ... done
Transforming Z to the AO basis                   ... done
Calculating G(Z)                                 ... done
Finalizing the W-matrix                          ... done
Transforming W to the AO basis and storing       ... done

----------------------------------
MP2 DERIVATIVE INTEGRAL GENERATION
----------------------------------

Input SCF Electron Density              ... neb.scfp
Input Correlated Electron Density       ... neb.pmp2re
Input Energy Weighted Density           ... neb.wmp2.tmp

Nuclear repulsion gradient              ... done (  0.0 sec)
HCore & Overlap gradient  (SHARK)       ... done (  0.0 sec)
Two-electron RIJ gradient terms         ... done (  0.4 sec)

-----------------------------------------------------------
MP2 COSX Grid Generation
-----------------------------------------------------------

General Integration Accuracy     IntAcc      ... 4.871
Radial Grid Type                 RadialGrid  ... OptM3 with GC (2021)
Angular Grid (max. ang.)         AngularGrid ... 4 (Lebedev-302)
Angular grid pruning method      GridPruning ... 4 (adaptive)
Weight generation scheme         WeightScheme... mBecke (2022)
Basis function cutoff            BFCut       ... 1.0000e-12
Integration weight cutoff        WCut        ... 1.0000e-14
Partially contracted basis set               ... on
Rotationally invariant grid construction     ... off
Angular grids for H and He will be reduced by one unit

Total number of grid points                  ...    75820
Total number of batches                      ...      601
Average number of points per batch           ...      126
Average number of grid points per atom       ...     5055
UseSFitting                                  ... on
Two-electron COSX gradient terms        ... 
Integration Timings:
Total Time                  =     6.1 sec
Basis fcn evaluation        =     0.0 sec
Density evaluation          =     0.2 sec
A evaluation                =     5.1 sec
A derivative evaluation     =     0.0 sec
S-fit derivative evaluation =     0.0 sec
anal. over. der. evaluation =     0.0 sec
num. over. der. evaluation  =     0.1 sec
K(P) evaluation             =     0.1 sec
finalize                    =     0.0 sec

done (  6.4 sec)
DFT XC gradient                         ... done (  3.2 sec)
Empirical dispersion gradient           ... done (  0.0 sec)

-------
TIMINGS
-------

Total time                :   27.952 sec
Integral trafo            :    0.305 sec (  1.1%)
FC preparation            :    0.230 sec (  0.8%)
I/O of integrals          :    0.121 sec (  0.4%)
K(i,j) operators          :    0.504 sec (  1.8%)
T(i,j) pair energies      :    0.036 sec (  0.1%)
V**(-1/2)                 :    0.088 sec (  0.3%)
Gamma(ia|P)               :    0.516 sec (  1.8%)
Gamma-Trafo               :    0.093 sec (  0.3%)
D(virtual)                :    0.104 sec (  0.4%)
D(internal)               :    0.246 sec (  0.9%)
W(virtual)                :    0.107 sec (  0.4%)
W(internal)               :    0.153 sec (  0.5%)
L(virtual)                :    0.139 sec (  0.5%)
L(internal)               :    0.005 sec (  0.0%)
XC kernel                 :    0.030 sec (  0.1%)
G(D)                      :    1.934 sec (  6.9%)
G(Z)                      :    1.984 sec (  7.1%)
Z-vector solution         :   10.352 sec ( 37.0%)
3-index derivative        :    0.347 sec (  1.2%)
2-index derivative        :    0.024 sec (  0.1%)
Fock matrix gradient      :   10.093 sec ( 36.1%)


---------------------------------------
MP2 TOTAL ENERGY:     -270.649209030 Eh
---------------------------------------

The final MP2 gradient
  0:   0.00016506   0.00046236  -0.00010479
  1:   0.00028694  -0.00023517   0.00002285
  2:  -0.00030304  -0.00020476   0.00037055
  3:   0.00008438  -0.00002929  -0.00001197
  4:   0.00038781  -0.00011171   0.00000290
  5:  -0.00012297  -0.00005727  -0.00003178
  6:  -0.00004804   0.00005880   0.00029278
  7:   0.00001262   0.00022947   0.00013795
  8:  -0.00002941  -0.00025252  -0.00020325
  9:   0.00005788  -0.00048011   0.00019972
 10:   0.00013112   0.00009637  -0.00018944
 11:  -0.00090559   0.00003494   0.00035272
 12:   0.00010198   0.00005323  -0.00010564
 13:  -0.00018942  -0.00026117   0.00103558
 14:   0.00038625   0.00071272  -0.00176506

-----------------------------------
NORM OF THE MP2 GRADIENT:  0.002716
-----------------------------------

Maximum memory used throughout the entire MP2-calculation: 69.0 MB


-------------------------------------------------------------------------------
                          DFT DISPERSION CORRECTION                            
                                                                               
                                DFTD4 V3.4.0                                   
-------------------------------------------------------------------------------
The REV-DSD-PBEP86-2021 functional is recognized
A user input s6-coefficient scaling factor has been recognized
A user input a1-coefficient scaling factor has been recognized
A user input s8-coefficient scaling factor has been recognized
A user input a2-coefficient scaling factor has been recognized
A user input s9-coefficient scaling factor has been recognized
Active option DFTDOPT                   ...         5   

-------------------------   ----------------
Dispersion correction           -0.007419906
-------------------------   ----------------


-------------------------   --------------------
FINAL SINGLE POINT ENERGY      -270.656628935899
-------------------------   --------------------

------------------------------------------------------------------------------
                         ORCA GEOMETRY RELAXATION STEP
------------------------------------------------------------------------------

Reading the OPT-File                    .... done
Getting information on internals        .... done
Copying old internal coords+grads       .... done
Making the new internal coordinates     .... (2022 redundants) done
Validating the new internal coordinates .... (2022 redundants) done
Calculating the B-matrix                .... done
Calculating the G,G- and P matrices     .... done
Transforming gradient to internals      .... done
Projecting the internal gradient        .... done
Number of atoms                         ....  15
Number of internal coordinates          ....  78
Current Energy                          ....  -270.656628936 Eh
Current gradient norm                   ....     0.002715928 Eh/bohr
Maximum allowed component of the step   ....  0.300
Current trust radius                    ....  0.100
Evaluating the initial hessian          ....  (read) 
(Reading Exact Hessian)...  
InHessName: neb.appr.hess	The file <neb.appr.hess> is opened as a .hess file
done
done
Projecting the Hessian                  .... done
Diagonalizing the Hessian               .... done
Dimension of the hessian                ....  78
Lowest eigenvalues of the Hessian:
 -0.026487038  0.007222493  0.008234116  0.015732264  0.021081715
Hessian has   1 negative eigenvalues
Taking P-RFO step
Searching for lambda that maximizes along the lowest mode
TS mode is mode number   0 with eigenvalue  -0.02648704 and components:
   1.   -0.00464153
   2.   -0.00025774
   3.   -0.00810293
   4.   -0.00076109
   5.   -0.00767126
   6.   -0.00249407
   7.   -0.00140961
   8.   -0.03201224
   9.   -0.05351264
  10.   -0.00130355
  11.    0.00742514
  12.    0.29666727
  13.   -0.00702341
  14.   -0.77465201
  15.    0.00132470
  16.   -0.38229813
  17.    0.00730418
  18.    0.00559088
  19.   -0.01246804
  20.   -0.00336086
  21.   -0.00041527
  22.    0.00353054
  23.   -0.00406191
  24.   -0.00451572
  25.    0.00014930
  26.    0.00432622
  27.    0.00341879
  28.    0.00013070
  29.    0.01262568
  30.   -0.01105152
  31.   -0.02536970
  32.    0.00404065
  33.    0.01977105
  34.   -0.00197371
  35.    0.03578753
  36.   -0.06195280
  37.    0.05032367
  38.    0.05438313
  39.   -0.04278912
  40.   -0.04872401
  41.    0.05626554
  42.    0.02254089
  43.    0.08022516
  44.    0.18983823
  45.   -0.24610378
  46.   -0.00393024
  47.   -0.01371640
  48.   -0.01181526
  49.   -0.02160142
  50.   -0.01101196
  51.    0.00385065
  52.    0.00107050
  53.   -0.00395185
  54.   -0.00320946
  55.   -0.00216964
  56.    0.02705144
  57.    0.02230306
  58.    0.02909667
  59.    0.00257874
  60.    0.00462397
  61.    0.03700579
  62.    0.04424403
  63.    0.02439727
  64.   -0.01251088
  65.   -0.03235764
  66.   -0.10003424
  67.   -0.01974912
  68.   -0.02980195
  69.   -0.02027129
  70.    0.02283656
  71.    0.03236722
  72.    0.06072367
  73.   -0.03997162
  74.   -0.04130895
  75.    0.05595215
  76.   -0.03653743
  77.    0.05862732
  78.   -0.04512229

Lambda that maximizes along the TS mode:       0.00000000
Searching for lambda that minimizes along all other modes
In cycle   1: lambdaN =  -0.00006776   step =   0.00006776
In cycle   2: lambdaN =  -0.00006776   step =   0.00000000
Lambda that minimizes along all other modes:  -0.00006776
The final length of the internal step   ....       0.0617
Converting the step to Cartesian space:
 Initial RMS(Int)=    0.0069892983
Transforming coordinates:
 Iter   0:  RMS(Cart)=    0.0137043124 RMS(Int)=    0.0069901120
done
Storing new coordinates                 .... done

                                .--------------------.
          ----------------------|Geometry convergence|-------------------------
          Item                value                   Tolerance       Converged
          ---------------------------------------------------------------------
          RMS gradient        0.0002604902            0.0000300000      NO
          MAX gradient        0.0010108881            0.0001000000      NO
          RMS step            0.0069892983            0.0006000000      NO
[...]
      2      -0.016227  -0.027512   0.000148
      3      -0.037794   0.039086  -0.000228
      4       0.042924  -0.034717   0.000006
      5      -0.030393   0.032657  -0.000207
      6       0.135218   0.162820  -0.000109
      7       0.595490   0.700375   0.000602
      8       0.204387   0.244421   0.000422
      9      -0.001751   0.001641   0.000011
     10      -0.002140   0.002632  -0.000042
     11      -0.000688   0.001412  -0.000001
     12       0.442300  -0.375942  -0.000245
     13      -0.503660   0.422568   0.000318
     14       0.357120  -0.303764  -0.000333
     15       0.000312  -0.000056  -0.000054
     16      -0.000100   0.001745   0.000013
     17       0.000330  -0.000497   0.000062
     18      -0.002419   0.004148   0.000139
     19       0.002145  -0.003309  -0.000178
     20       0.003306  -0.008572  -0.000051
     21       0.021994  -0.021928  -0.000380
     22       0.011374  -0.011806  -0.000067
     23       0.000505  -0.001993  -0.000096
     24      -0.001221  -0.001889   0.001084
     25       0.001044   0.001537  -0.000209
     26      -0.002516  -0.003356  -0.000106
     27      -0.001040   0.004777  -0.000104
     28       0.000831  -0.007550   0.000153
     29      -0.000053  -0.002240  -0.000130
     30       0.000217  -0.005152  -0.000550
     31       0.000215  -0.002917  -0.000378
     32      -0.000913   0.006281  -0.000240
     33       0.001120  -0.000982  -0.012422
     34      -0.001007  -0.001069   0.003698
     35      -0.001293   0.000621   0.004204
     36       0.006121   0.009871  -0.002491
     37      -0.003079  -0.004178   0.000062
     38       0.026424   0.033258   0.000075
     39       0.000008   0.000060  -0.024881
     40      -0.000001   0.000006   0.045988
     41       0.000020   0.000001  -0.034750
     42      -0.000390  -0.000824   0.399145
     43      -0.000134   0.000028  -0.731577
     44      -0.000052  -0.000262   0.548946


-----------
IR SPECTRUM
-----------

 Mode   freq       eps      Int      T**2         TX        TY        TZ
       cm**-1   L/(mol*cm) km/mol    a.u.
----------------------------------------------------------------------------
  7:     63.97   0.000623    3.15  0.003039  (-0.006263 -0.019269 -0.051271)
  8:     85.64   0.002174   10.99  0.007923  ( 0.069282  0.055262 -0.008305)
  9:    121.48   0.013998   70.74  0.035960  (-0.099757 -0.133012 -0.091195)
 10:    189.95   0.000686    3.47  0.001127  ( 0.020689  0.016466  0.020690)
 11:    387.34   0.000307    1.55  0.000248  (-0.013394 -0.000118 -0.008252)
 12:    583.12   0.002584   13.06  0.001383  (-0.020072  0.001499  0.031265)
 13:    702.44   0.012334   62.33  0.005479  (-0.059758 -0.004412  0.043460)
 14:    761.80   0.000251    1.27  0.000103  ( 0.005296 -0.000541  0.008627)
 15:    790.45   0.007750   39.16  0.003060  ( 0.053340  0.000908 -0.014613)
 16:    824.33   0.013839   69.94  0.005239  ( 0.064207  0.002976 -0.033279)
 17:    882.36   0.015265   77.14  0.005399  (-0.066374 -0.000798  0.031507)
 18:    925.50   0.001967    9.94  0.000663  ( 0.024530  0.007531 -0.002205)
 19:    929.41   0.001146    5.79  0.000385  ( 0.009083  0.003816  0.016961)
 20:    989.47   0.000573    2.90  0.000181  (-0.011478  0.005515  0.004310)
 21:    993.52   0.001538    7.77  0.000483  (-0.018380  0.012032  0.000802)
 22:   1053.39   0.000487    2.46  0.000144  (-0.010109 -0.006495  0.000084)
 23:   1065.47   0.034791  175.82  0.010190  ( 0.088606 -0.000299 -0.048361)
 24:   1138.40   0.000010    0.05  0.000003  ( 0.000517 -0.000985 -0.001280)
 25:   1155.92   0.008082   40.85  0.002182  ( 0.035199 -0.005931 -0.030131)
 26:   1212.33   0.000413    2.09  0.000106  ( 0.008084  0.002957  0.005686)
 27:   1238.35   0.000088    0.45  0.000022  ( 0.001993  0.002427 -0.003517)
 28:   1300.58   0.003759   19.00  0.000902  ( 0.029431  0.005130 -0.003073)
 29:   1318.45   0.003537   17.88  0.000837  (-0.024828  0.000733  0.014843)
 30:   1340.74   0.000332    1.68  0.000077  ( 0.005167 -0.007059 -0.000894)
 31:   1393.10   0.000940    4.75  0.000211  ( 0.002125  0.000215  0.014355)
 32:   1427.82   0.040052  202.40  0.008754  (-0.088389  0.001927  0.030615)
 33:   1486.18   0.003159   15.96  0.000663  (-0.017364 -0.004870  0.018387)
 34:   1505.18   0.002904   14.67  0.000602  ( 0.018535 -0.010786 -0.011922)
 35:   1549.53   0.348324  1760.29  0.070150  ( 0.243523  0.001241 -0.104139)
 36:   1733.98   0.002956   14.94  0.000532  ( 0.021542  0.007933 -0.002245)
 37:   3037.00   0.005373   27.15  0.000552  (-0.005204 -0.008720 -0.021188)
 38:   3060.35   0.003352   16.94  0.000342  (-0.004667 -0.013427  0.011823)
 39:   3091.48   0.005790   29.26  0.000584  (-0.020840 -0.012188 -0.001269)
 40:   3102.72   0.004636   23.43  0.000466  (-0.007404  0.006439 -0.019234)
 41:   3128.58   0.003607   18.23  0.000360  ( 0.011402 -0.012565 -0.008481)
 42:   3197.49   0.000918    4.64  0.000090  (-0.006090 -0.000054 -0.007245)
 43:   3223.74   0.002964   14.98  0.000287  ( 0.005256 -0.016076  0.000929)
 44:   3767.87   0.004368   22.07  0.000362  (-0.011045 -0.008107  0.013192)

* The epsilon (eps) is given for a Dirac delta lineshape.
** The dipole moment derivative (T) already includes vibrational overlap.

The first frequency considered to be a vibration is 7
The total number of vibrations considered is 38


--------------------------
THERMOCHEMISTRY AT 298.15K
--------------------------

Temperature         ...   298.15 K
Pressure            ...     1.00 atm
Total Mass          ...    85.13 AMU
Quasi RRHO          ...     True
Cut-Off Frequency   ...     1.00 cm^-1

Throughout the following assumptions are being made:
  (1) The electronic state is orbitally nondegenerate
      but the spin degeneracy is treated
  (2) There are no thermally accessible electronically excited states
  (3) Hindered rotations indicated by low frequency modes are not
      treated as such but are treated as vibrations and this may
      cause some error
  (4) All equations used are the standard statistical mechanics
      equations for an ideal gas
  (5) All vibrations are strictly harmonic

freq.      63.97  E(vib)   ...       0.51 
freq.      85.64  E(vib)   ...       0.48 
freq.     121.48  E(vib)   ...       0.44 
freq.     189.95  E(vib)   ...       0.36 
freq.     387.34  E(vib)   ...       0.20 
freq.     583.12  E(vib)   ...       0.11 
freq.     702.44  E(vib)   ...       0.07 
freq.     761.80  E(vib)   ...       0.06 
freq.     790.45  E(vib)   ...       0.05 
freq.     824.33  E(vib)   ...       0.04 
freq.     882.36  E(vib)   ...       0.04 
freq.     925.50  E(vib)   ...       0.03 
freq.     929.41  E(vib)   ...       0.03 
freq.     989.47  E(vib)   ...       0.02 
freq.     993.52  E(vib)   ...       0.02 
freq.    1053.39  E(vib)   ...       0.02 
freq.    1065.47  E(vib)   ...       0.02 
freq.    1138.40  E(vib)   ...       0.01 
freq.    1155.92  E(vib)   ...       0.01 
freq.    1212.33  E(vib)   ...       0.01 
freq.    1238.35  E(vib)   ...       0.01 
freq.    1300.58  E(vib)   ...       0.01 
freq.    1318.45  E(vib)   ...       0.01 
freq.    1340.74  E(vib)   ...       0.01 
freq.    1393.10  E(vib)   ...       0.00 
freq.    1427.82  E(vib)   ...       0.00 
freq.    1486.18  E(vib)   ...       0.00 
freq.    1505.18  E(vib)   ...       0.00 
freq.    1549.53  E(vib)   ...       0.00 
freq.    1733.98  E(vib)   ...       0.00 
freq.    3037.00  E(vib)   ...       0.00 
freq.    3060.35  E(vib)   ...       0.00 
freq.    3091.48  E(vib)   ...       0.00 
freq.    3102.72  E(vib)   ...       0.00 
freq.    3128.58  E(vib)   ...       0.00 
freq.    3197.49  E(vib)   ...       0.00 
freq.    3223.74  E(vib)   ...       0.00 
freq.    3767.87  E(vib)   ...       0.00 

------------
INNER ENERGY
------------

The inner energy is: U= E(el) + E(ZPE) + E(vib) + E(rot) + E(trans)
    E(el)   - is the total energy from the electronic structure calculation
              = E(kin-el) + E(nuc-el) + E(el-el) + E(nuc-nuc)
    E(ZPE)  - the the zero temperature vibrational energy from the frequency calculation
    E(vib)  - the the finite temperature correction to E(ZPE) due to population
              of excited vibrational states
    E(rot)  - is the rotational thermal energy
    E(trans)- is the translational thermal energy

Summary of contributions to the inner energy U:
Electronic energy                ...   -270.65673831 Eh
Zero point energy                ...      0.12475118 Eh      78.28 kcal/mol
Thermal vibrational correction   ...      0.00410826 Eh       2.58 kcal/mol
Thermal rotational correction    ...      0.00141627 Eh       0.89 kcal/mol
Thermal translational correction ...      0.00141627 Eh       0.89 kcal/mol
-----------------------------------------------------------------------
Total thermal energy                   -270.52504633 Eh


Summary of corrections to the electronic energy:
(perhaps to be used in another calculation)
Total thermal correction                  0.00694080 Eh       4.36 kcal/mol
Non-thermal (ZPE) correction              0.12475118 Eh      78.28 kcal/mol
-----------------------------------------------------------------------
Total correction                          0.13169198 Eh      82.64 kcal/mol


--------
ENTHALPY
--------

The enthalpy is H = U + kB*T
                kB is Boltzmann's constant
Total thermal energy              ...   -270.52504633 Eh 
Thermal Enthalpy correction       ...      0.00094421 Eh       0.59 kcal/mol
-----------------------------------------------------------------------
Total Enthalpy                    ...   -270.52410212 Eh


Note: Only C1 symmetry has been detected, increase convergence thresholds 
      if your molecule has a higher symmetry. Symmetry factor of 1.0 is   
      used for the rotational entropy correction. 
 

Note: Rotational entropy computed according to Herzberg 
Infrared and Raman Spectra, Chapter V,1, Van Nostrand Reinhold, 1945 
Point Group:  C1, Symmetry Number:   1  
Rotational constants in cm-1:     0.159766     0.082036     0.074049 

Vibrational entropy computed according to the QRRHO of S. Grimme
Chem.Eur.J. 2012 18 9955 using a reference frequency of 100.0 cm-1


-------
ENTROPY
-------

The entropy contributions are T*S = T*(S(el)+S(vib)+S(rot)+S(trans))
     S(el)   - electronic entropy
     S(vib)  - vibrational entropy
     S(rot)  - rotational entropy
     S(trans)- translational entropy
The entropies will be listed as multiplied by the temperature to get
units of energy

Electronic entropy                ...      0.00065446 Eh      0.41 kcal/mol
Vibrational entropy               ...      0.00731585 Eh      4.59 kcal/mol
Rotational entropy                ...      0.01278602 Eh      8.02 kcal/mol
Translational entropy             ...      0.01864317 Eh     11.70 kcal/mol
-----------------------------------------------------------------------
Final entropy term                ...      0.03939949 Eh     24.72 kcal/mol

In case the symmetry of your molecule has not been determined correctly
or in case you have a reason to use a different symmetry number we print 
out the resulting rotational entropy values for sn=1,12:

 non-linear molecules -----------------------------------
|  sn= 1 | S(rot)=       0.01278602 Eh      8.02 kcal/mol|
|  sn= 2 | S(rot)=       0.01213156 Eh      7.61 kcal/mol|
|  sn= 3 | S(rot)=       0.01174873 Eh      7.37 kcal/mol|
|  sn= 4 | S(rot)=       0.01147710 Eh      7.20 kcal/mol|
|  sn= 5 | S(rot)=       0.01126642 Eh      7.07 kcal/mol|
|  sn= 6 | S(rot)=       0.01109427 Eh      6.96 kcal/mol|
|  sn= 7 | S(rot)=       0.01094873 Eh      6.87 kcal/mol|
|  sn= 8 | S(rot)=       0.01082265 Eh      6.79 kcal/mol|
|  sn= 9 | S(rot)=       0.01071144 Eh      6.72 kcal/mol|
|  sn=10 | S(rot)=       0.01061196 Eh      6.66 kcal/mol|
|  sn=11 | S(rot)=       0.01052197 Eh      6.60 kcal/mol|
|  sn=12 | S(rot)=       0.01043981 Eh      6.55 kcal/mol|
 linear molecules ---------------------------------------
|  Dinfh | S(rot)=       0.00778353 Eh      4.88 kcal/mol|
|  Cinfv | S(rot)=       0.00843799 Eh      5.29 kcal/mol|
 --------------------------------------------------------


-------------------
GIBBS FREE ENERGY
-------------------

The Gibbs free energy is G = H - T*S

Total enthalpy                    ...   -270.52410212 Eh 
Total entropy correction          ...     -0.03939949 Eh    -24.72 kcal/mol
-----------------------------------------------------------------------
Final Gibbs free energy         ...   -270.56350161 Eh

For completeness - the Gibbs free energy minus the electronic energy
G-E(el)                           ...      0.09323670 Eh     58.51 kcal/mol



--------------------------------
SUGGESTED CITATIONS FOR THIS RUN
--------------------------------

Below you find a list of papers that are relevant to this ORCA run
We neither can nor want to force you to cite these papers, but we appreciate if you do
You receive ORCA, which is the product of decades of hard work by many enthusiastic individuals, for free
The only thing we kindly ask in return is that you cite our papers,
We deeply appreciate it, if you show your appreciation for ORCA by not just citing the generic ORCA reference.

Please note that relegating all ORCA citations to the supporting information does *not* help us.
SI sections are not indexed - citations you put there will not count into any citation statistics
But we need these citations in order to attract the funding resources that allow us to do what we are doing

Therefore, if you are a happy ORCA user, please consider citing a few of the papers listed below in the main body of your paper

In addition to the list printed below, the program has created the file neb.bibtex that contains the list in bibtex format
You can import this file easily into all common literature databanks and citation aid programs

It goes without saying that in many instances, there are alternative algorithms to achieve similar
results as the ones you have gotten from ORCA. It is, of course, also the case that in some instances
ORCA just re-implements algorithms worked out by others. We are fully aware of that and we are also
fully appreciative of our colleagues work. Hence this citation list should not be read as indicating
that the listed papers, which are focused on our own work, are the only ones worth citing. It simply
meant to make it easier for users to cite ORCA specific papers. It is not a substitute for doing your
own literature research and citing the relevant literature in a scientifically appropriate manner.

List of essential papers. We consider these as the minimum necessary citations

  1. Neese, F.
     Software update: the ORCA program system, version 6.0
     WIRES Comput. Molec. Sci. 2025 15(1), e70019
     doi.org/10.1002/wcms.70019

List of papers to cite with high priority. The work reported in these papers was absolutely
necessary for this run to complete.
Our perspective: the developers of density functionals and basis sets usually get cited in chemistry papers
Good! But without the algorithms to do something with them, the functionals or basis sets would not do anything.
Hence, in our opinion, the algorithm design and method developments papers are equally worthy of getting cited

  1. Neese, F.
     An improvement of the resolution of the identity approximation for the formation of the Coulomb matrix
     J. Comp. Chem. 2003 24(14), 1740-1747
     doi.org/10.1002/jcc.10318
  2. Neese, F.; Schwabe, T.; Grimme, S.
     Analytic derivatives for perturbatively corrected 'double hybrid' density functionals: Theory, implementation, and applications
     J. Chem. Phys. 2007 126(12), Art. No. 124115
     doi.org/10.1063/1.2712433
  3. Neese, F.; Wennmohs, F.; Hansen, A.; Becker, U.
     Efficient, approximate and parallel Hartree-Fock and hybrid DFT calculations. A 'chain-of-spheres' algorithm for the Hartree-Fock exchange
     Chem. Phys. 2009 356(1-3), 98-109
     doi.org/10.1016/j.chemphys.2008.10.036
  4. Kossmann, S.; Neese, F.
     Efficient Structure Optimization with Second-Order Many-Body Perturbation Theory: The RIJCOSX-MP2 Method
     J. Theo. Comp. Chem. 2010 6 , 2325-2338
     doi.org/10.1021/ct100199k
  5. Caldeweyher, E.; Bannwarth, C.; Grimme, S.
     Extension of the D3 dispersion coefficient model
     J. Chem. Phys. 2017 147 , 034112
     doi.org/10.1063/1.4993215
  6. Caldeweyher, E.; Ehlert, S.; Hansen, A.; Neugebauer, H.; Spicher, S.; Bannwarth, C.; Grimme, S.
     A generally applicable atomic-charge dependent London dispersion correction
     J. Chem. Phys. 2019 150 , 154122
     doi.org/10.1063/1.5090222
  7. Asgeirsson, V.; Orri Birgisson, B.; Björnsson, R.; Becker, U.; Neese, F.; Riplinger, C.; Jonsson, H.
     Nudged Elastic Band Method for Molecular Reactions Using Energy-Weighted Springs Combined with Eigenvector Following
     J. Chem. Theory Comput. 2021 17(8), 4929-4945
     doi.org/10.1021/acs.jctc.1c00462
  8. Helmich-Paris, B.; de Souza, B.; Neese, F.; Izsák, R.
     An improved chain of spheres for exchange algorithm
     J. Chem. Phys. 2021 155(10), 104109
     doi.org/10.1063/5.0058766
  9. Neese, F.
     The SHARK Integral Generation and Digestion System
     J. Comp. Chem. 2022 44(3), 381
     doi.org/10.1002/jcc.26942
 10. Schmerwitz, Y.L.A.; Asgeirsson, V.; Jonsson, H.
     Improved Initialization of Optimal Path Calculations
     Using Sequential Traversal over the
     Image-Dependent Pair Potential Surface
     J. Chem. Theory Comput. 2023 20(1), 155-163
     doi.org/10.1021/acs.jctc.3c01111

List of suggested additional citations. These are papers that are important in the 'surrounding' of 
of this run, or papers that preceded the highly important papers. If you like your results we are grateful for a citation.

  1. Izsak, R.; Neese, F.
     An overlap fitted chain of spheres exchange method
     J. Chem. Phys. 2011 135 , 144105
     doi.org/10.1063/1.3646921
  2. Izsak, R.; Hansen, A.; Neese, F.
     The resolution of identity and chain of spheres approximations for the LPNO-CCSD singles Fock term
     Molec. Phys. 2012 110 , 2413-2417
     doi.org/10.1080/00268976.2012.687466
  3. Neese, F.
     The ORCA program system
     WIRES Comput. Molec. Sci. 2012 2(1), 73-78
     doi.org/10.1002/wcms.81
  4. Izsak, R.; Neese, F.; Klopper, W.
     Robust fitting techniques in the chain of spheres approximation to the Fock exchange: The role of the complementary space
     J. Chem. Phys. 2013 139 , 
     doi.org/10.1063/1.4819264
  5. Neese, F.
     Software update: the ORCA program system, version 4.0
     WIRES Comput. Molec. Sci. 2018 8(1), 1-6
     doi.org/10.1002/wcms.1327
  6. Neese, F.; Wennmohs, F.; Becker, U.; Riplinger, C.
     The ORCA quantum chemistry program package
     J. Chem. Phys. 2020 152(22), 224108
     doi.org/10.1063/5.0004608
  7. Neese, F.
     Software update: The ORCA program system—Version 5.0
     WIRES Comput. Molec. Sci. 2022 12(1), e1606
     doi.org/10.1002/wcms.1606

List of optional additional citations

  1. Neese, F.
     Approximate second-order SCF convergence for spin unrestricted wavefunctions
     Chem. Phys. Lett. 2000 325(1-3), 93-98
     doi.org/10.1016/s0009-2614(00)00662-x

Timings for individual modules:

Sum of individual times          ...    11868.730 sec (= 197.812 min)
Startup calculation              ...      119.454 sec (=   1.991 min)   1.0 %
SCF iterations                   ...      714.724 sec (=  11.912 min)   6.0 %
Property calculations            ...        2.893 sec (=   0.048 min)   0.0 %
MP2 module                       ...      902.198 sec (=  15.037 min)   7.6 %
Geometry relaxation              ...        0.092 sec (=   0.002 min)   0.0 %
Numerical frequency calculation  ...     3527.277 sec (=  58.788 min)  29.7 %
NEB Iterations                   ...     6602.092 sec (= 110.035 min)  55.6 %
                             ****ORCA TERMINATED NORMALLY****
TOTAL RUN TIME: 0 days 3 hours 15 minutes 22 seconds 531 msec
