Loading orca...
Setting up scratch directory...
Copying files into scratch directory...
Navigating to scratch directory...
Running orca on  at ...

                                 *****************
                                 * O   R   C   A *
                                 *****************

                                            #,                                       
                                            ###                                      
                                            ####                                     
                                            #####                                    
                                            ######                                   
                                           ########,                                 
                                     ,,################,,,,,                         
                               ,,#################################,,                 
                          ,,##########################################,,             
                       ,#########################################, ''#####,          
                    ,#############################################,,   '####,        
                  ,##################################################,,,,####,       
                ,###########''''           ''''###############################       
              ,#####''   ,,,,##########,,,,          '''####'''          '####       
            ,##' ,,,,###########################,,,                        '##       
           ' ,,###''''                  '''############,,,                           
         ,,##''                                '''############,,,,        ,,,,,,###''
      ,#''                                            '''#######################'''  
     '                                                          ''''####''''         
             ,#######,   #######,   ,#######,      ##                                
            ,#'     '#,  ##    ##  ,#'     '#,    #''#        ,####,    ,#,          
            ##       ##  ##   ,#'  ##            #'  '#       #'       ,# #          
            ##       ##  #######   ##           ,######,      #####,      #          
            '#,     ,#'  ##    ##  '#,     ,#' ,#      #,     #,   #      #          
             '#######'   ##     ##  '#######'  #'      '#     '####' #    #          



                #########################################################
                #                        -***-                          #
                #          Department of theory and spectroscopy        #
                #                                                       #
                #                      Frank Neese                      #
                #                                                       #
                #     Directorship, Architecture, Infrastructure        #
                #                    SHARK, DRIVERS                     #
                #        Core code/Algorithms in most modules           #
                #                                                       #
                #        Max Planck Institute fuer Kohlenforschung      #
                #                Kaiser Wilhelm Platz 1                 #
                #                 D-45470 Muelheim/Ruhr                 #
                #                      Germany                          #
                #                                                       #
                #                  All rights reserved                  #
                #                        -***-                          #
                #########################################################


                         Program Version 6.1.1  -  RELEASE   -
                                (GIT: $487d211c$)
                          ($2025-11-21 10:33:24 +0100$)


 With contributions from (in alphabetic order):
[Max-Planck-Institut fuer Kohlenforschung]                               
  Daniel Aravena         : Magnetic Suceptibility                        
  Michael Atanasov       : Ab Initio Ligand Field Theory (pilot matlab implementation)
  Alexander A. Auer      : GIAO ZORA, VPT2 properties, NMR spectrum      
  Ute Becker             : All parallelization in ORCA, NUMFREQ, NUMCALC 
  Giovanni Bistoni       : ED, misc. LED, open-shell LED, HFLD           
  Dmytro Bykov           : pre 5.0 version of the SCF Hessian            
  Marcos Casanova-Páez   : Triplet and SCS-CIS(D). UHF-(DLPNO)-IP/EA/STEOM-CCSD. UHF-CVS-IP/STEOM-CCSD   
  Vijay G. Chilkuri      : MRCI spin determinant printing, contributions to CSF-ICE 
  Pauline Colinet        : FMM embedding                                 
  Dipayan Datta          : RHF DLPNO-CCSD density                        
  Achintya Kumar Dutta   : EOM-CC, STEOM-CC                              
  Nicolas Foglia         : Exact transition moments, OPA infrastructure, MCD improvements    
  Dmitry Ganyushin       : Spin-Orbit,Spin-Spin,Magnetic field MRCI      
  Miquel Garcia-Rates    : C-PCM and meta-GGA Hessian, CCSD/C-PCM, Gaussian charge scheme 
  Tiago L. C. Gouveia    : GS-ROHF, GS-ROCIS                             
  Yang Guo               : DLPNO-NEVPT2, F12-NEVPT2, CIM, IAO-localization        
  Andreas Hansen         : Spin unrestricted coupled pair/coupled cluster methods 
  Ingolf Harden          : AUTO-CI MPn and infrastructure                
  Benjamin Helmich-Paris : MC-RPA, TRAH-(SCF,CASSCF), AVAS, COSX integrals, SCF dyn. polar., MC-PDFT, srDFT 
  Lee Huntington         : MR-EOM, pCC                                   
  Robert Izsak           : Overlap fitted RIJCOSX, COSX-SCS-MP3, EOM     
  Riya Kayal             : Wick's Theorem for AUTO-CI, AUTO-CI UHF-CCSDT 
  Emily Kempfer          : AUTO-CI RHF CISDT and CCSDT, approximate NEVPT4
  Christian Kollmar      : KDIIS, OOCD, Brueckner-CCSD(T), CCSD density, CASPT2, CASPT2-K, improved NEVPT2 
  Axel Koslowski         : Symmetry handling                             
  Simone Kossmann        : meta-GGA functionals, TD-DFT gradient, OOMP2, (MP2 Hessian; deprecated post 5.0) 
  Lucas Lang             : DCDCAS, Hyperfine gauge corrections, ICE-SOC+SSC
  Marvin Lechner         : AUTO-CI (C++ implementation), FIC-MRCC        
  Spencer Leger          : CASSCF response                               
  Dagmar Lenk            : GEPOL surface, SMD, ORCA-2-JSON               
  Dimitrios Liakos       : Extrapolation schemes; Compound Job, Property file
  Dimitrios Manganas     : Further ROCIS development; embedding schemes. LFT, Crystal Embedding 
  Dimitrios Pantazis     : SARC Basis sets                               
  Anastasios Papadopoulos: AUTO-CI, single reference methods and gradients 
  Taras Petrenko         : pre 6.0 DFT Hessian and TD-DFT gradient,  ECA, NRVS 
  Petra Pikulova         : Analytic Raman intensities                    
  Peter Pinski           : DLPNO-MP2, DLPNO-MP2 Gradient                 
  Shashank Vittal Rao    : ES-AILFT, MagRelax                            
  Christoph Reimann      : Effective Core Potentials                     
  Marius Retegan         : Local ZFS, SOC                                
  Christoph Riplinger    : Optimizer, TS searches, QM/MM, DLPNO-CCSD(T), (RO)-DLPNO pert. Triples 
  Michael Roemelt        : Original ROCIS implementation, recursive CI coupling coefficients
  Masaaki Saitow         : Open-shell DLPNO-CCSD energy and density      
  Barbara Sandhoefer     : DKH picture change effects                    
  Yorick L. A. Schmerwitz: GMF and freeze-and-release deltaSCF, NEB S-IDPP initial path                    
  Kantharuban Sivalingam : CASSCF convergence/infrastructure, NEVPT2, NEVPT3, NEVPT4(SD), FIC-MRCI and CEPA variants
  Bernardo de Souza      : ESD, SOC TD-DFT                               
  Georgi L. Stoychev     : AutoAux, RI-MP2 NMR, DLPNO-MP2 response, X2C  
  Van Anh Tran           : RI-MP2 g-tensors                              
  Willem Van den Heuvel  : Paramagnetic NMR                              
  Zikuan Wang            : NOTCH, Electric field optimization            
  Frank Wennmohs         : Technical directorship and infrastructure     
  Hang Xu                : AUTO-CI-Response properties                   
                                                                         
[FACCTs GmbH]                                                            
  Markus Bursch, Nicolas Foglia, Miquel Garcia-Rates, Ingolf Harden, Hagen Neugebauer, Anastasios Papadopoulos, 
  Christoph Riplinger, Bernardo de Souza, Georgi L. Stoychev                                                    
                                                                 
  APM, various basis sets, CI-OPT, improved COSX, DLPNO-Multilevel,           
  DOCKER, DRACO, updates on ESD, Fragmentator, GOAT, IRC, LR-CPCM, L-BFGS, MBIS, meta-GGA TD-DFT gradient, ML-optimized integration grids, 
  MM, NACMEs, nearIR, NEB, NEB-TS, NL-DFT gradient (VV10), 2- and 3-layer-ONIOM, interface openCOSMO-RS, QMMM,   
  Crystal-QMMM, RESP, rigid body optimization, SF, symmetry and pop. for TD-DFT, various functionals, SOLVATOR                                   
                                                                         
[Other institutions]                                                     
  V. Asgeirsson          : NEB                                           
  Christoph Bannwarth    : sTDA-DFT, sTD-DFT, PBEh-3c, B97-3c, D3        
  Giovanni Bistoni       : ETS/NOCV, ADLD/ADEX, COVALED                  
  Martin Brehm           : Molecular dynamics                            
  Ronald Cardenas        : ETS/NOCV                                      
  Martina Colucci        : COVALED                                       
  Sebastian Ehlert       : rSCAN, r2SCAN, r2SCAN-3c, D4, dhf basis sets  
  Marvin Friede          : D4 for Fr, Ra, Ac-Lr                          
  Lars Goerigk           : TD-DFT with DH, B97 family of functionals     
  Stefan Grimme          : VdW corrections, initial TS optimization, DFT functionals, gCP, sTDA/sTD-DF 
  Waldemar Hujo          : DFT-NL                                        
  H. Jonsson             : NEB                                           
  Holger Kruse           : gCP                                           
  Marcel Mueller         : wB97X-3c, vDZP basis set                      
  Hagen Neugebauer       : wr2SCAN, Native XTB                           
  Gianluca Regni         : ADLD/ADEX                                     
  Tobias Risthaus        : pre 6.0 range-separated hybrid DFT and stability analysis
  Lukas Wittmann         : regularized MP2, r2SCAN double-hybrids, wr2SCAN        
                                                                         
We gratefully acknowledge several colleagues who have allowed us to      
interface, adapt or use parts of their codes:                            
  Ed Valeev, F. Pavosevic, A. Kumar             : LibInt (2-el integral package), F12 methods 
  Garnet Chan, S. Sharma, J. Yang, R. Olivares  : DMRG                   
  Ulf Ekstrom                                   : XCFun DFT Library      
  Mihaly Kallay                                 : mrcc  (arbitrary order and MRCC methods)
  Frank Weinhold                                : gennbo (NPA and NBO analysis)           
  Simon Mueller                                 : openCOSMO-RS                            
  Christopher J. Cramer and Donald G. Truhlar   : smd solvation model                     
  S Lehtola, MJT Oliveira, MAL Marques          : LibXC Library                           
  Liviu Ungur et al                             : ANISO software                          


 Your calculation uses the libint2 library for the computation of 2-el integrals
 For citations please refer to: http://libint.valeyev.net

 Your ORCA version has been built with support for libXC version: 7.0.0
 For citations please refer to: https://libxc.gitlab.io

 This ORCA versions uses:
   CBLAS   interface :  Fast vector & matrix operations
   LAPACKE interface :  Fast linear algebra routines
   SCALAPACK package :  Parallel linear algebra routines
   Shared memory     :  Shared parallel matrices
   BLAS/LAPACK       :  OpenBLAS 0.3.29  USE64BITINT DYNAMIC_ARCH NO_AFFINITY SkylakeX SINGLE_THREADED
        Core in use  :  SkylakeX
   Copyright (c) 2011-2014, The OpenBLAS Project


  ***********************************
  * Starting time: Wed Mar 11 09:39:07 2026
  * Host name:     c4-5
  * Process ID:    577192
  * Working dir.:  /tmp/lscratch/avcopan/43526898
  ***********************************

NOTE: MaxCore=9000 MB was set to SCF,MP2,MDCI,CIPSI,MRCI,RASCI and CIS
      => If you want to overwrite this, your respective input block should be placed after the MaxCore statement


***************************************
The coordinates will be read from file: neb.xyz
***************************************


================================================================================

----- Orbital basis set information -----
Your calculation utilizes the basis: cc-pVDZ-F12 

----- AuxC basis set information -----
Your calculation utilizes the auxiliary basis: cc-pVTZ/C 
  Obtained from the EMSL Basis Set Exchange (bse.pnl.gov) Feb. 2017
  H-He, B-F, Al-Ar, Ga-Kr : F. Weigend, A. Kohn, C. Hattig, J. Chem. Phys. 116, 3175 (2002)
             Li-Be, Na-Mg : C. Haettig, Phys. Chem. Chem. Phys. 7, 59 (2005)
                       Ne : C. Haettig, Phys. Chem. Chem. Phys. 7, 59 (2005)
                            F. Weigend, A. Kohn, C. Hattig, J. Chem. Phys. 116, 3175 (2002)
                    Sc-Zn : J. G. Hill, J. A. Platts, J. Chem. Phys. 128, 044104 (2008)

----- CABS information -----
Your calculation utilizes the basis: cc-pVDZ-F12 


                    <<< The CABS basis set will be decontracted >>>

================================================================================
                                        WARNINGS
                       Please study these warnings very carefully!
================================================================================


WARNING: Post HF methods need fully converged wavefunctions
  ===> : Setting SCFConvForced true
         You can overwrite this default with %scf ConvForced false 


WARNING: MDCI localization with Augmented Hessian Foster-Boys
  ===> : Switching off randomization!

WARNING: UseCISUpdate is  only available for RHF calculations...
  ===> : Setting UseCISUpdate = false 

================================================================================
                                       INPUT FILE
================================================================================
NAME = sp.inp
|  1> # 
|  2> % MaxCore 9000
|  3> ! PAL8
|  4> ! uhf ccsd(t)-f12/ri cc-pvdz-f12 cc-pvdz-f12-cabs cc-pvtz/c
|  5> * xyzfile 0 2 neb.xyz
|  6> 
|  7> 
|  8>                          ****END OF INPUT****
================================================================================

                       ****************************
                       * Single Point Calculation *
                       ****************************

---------------------------------
CARTESIAN COORDINATES (ANGSTROEM)
---------------------------------
  C     -0.178978    1.250641    0.468108
  C     -1.098453    0.943816   -0.450919
  H      0.050941    2.251326    0.811847
  C     -1.130898   -0.536477   -0.740036
  H     -1.728359    1.662288   -0.961106
  C     -0.306814   -1.132399    0.421132
  H     -0.665224   -0.742790   -1.710465
  H     -2.145884   -0.937404   -0.784192
  C      0.555384    0.030739    0.926818
  H      0.287437   -1.996500    0.125154
  H     -0.982575   -1.445096    1.221661
  H      1.587732   -0.009276    0.399135
  H      0.804075   -0.000603    1.988967
  O      2.670441   -0.024360   -0.591997
  H      2.281175    0.686096   -1.124108

----------------------------
CARTESIAN COORDINATES (A.U.)
----------------------------
  NO LB      ZA    FRAG     MASS         X           Y           Z
   0 C     6.0000    0    12.011   -0.338219    2.363370    0.884595
   1 C     6.0000    0    12.011   -2.075775    1.783555   -0.852113
   2 H     1.0000    0     1.008    0.096265    4.254389    1.534169
   3 C     6.0000    0    12.011   -2.137088   -1.013795   -1.398465
   4 H     1.0000    0     1.008   -3.266124    3.141269   -1.816228
   5 C     6.0000    0    12.011   -0.579794   -2.139924    0.795824
   6 H     1.0000    0     1.008   -1.257090   -1.403671   -3.232310
   7 H     1.0000    0     1.008   -4.055134   -1.771437   -1.481907
   8 C     6.0000    0    12.011    1.049523    0.058087    1.751433
   9 H     1.0000    0     1.008    0.543177   -3.772838    0.236506
  10 H     1.0000    0     1.008   -1.856798   -2.730835    2.308604
  11 H     1.0000    0     1.008    3.000379   -0.017529    0.754257
  12 H     1.0000    0     1.008    1.519481   -0.001140    3.758603
  13 O     8.0000    0    15.999    5.046402   -0.046033   -1.118712
  14 H     1.0000    0     1.008    4.310795    1.296533   -2.124256

--------------------------------
INTERNAL COORDINATES (ANGSTROEM)
--------------------------------
 C      0   0   0     0.000000000000     0.00000000     0.00000000
 C      1   0   0     1.335734054047     0.00000000     0.00000000
 H      1   2   0     1.082769112819   125.23181653     0.00000000
 C      2   1   3     1.508612393832   111.84240675   177.77822394
 H      2   1   3     1.083177552246   124.89089796   359.77285896
 C      4   2   1     1.543550358578   102.89554439    13.59539752
 H      4   2   1     1.095969972873   110.19810176   254.58755214
 H      4   2   1     1.092194820947   112.82558915   135.24359087
 C      1   2   3     1.495949557984   111.19702265   182.79725267
 H      6   4   2     1.089682387517   113.13947300   215.39151772
 H      6   4   2     1.093288127825   109.34493086    94.97027937
 H      9   1   2     1.160083395730   108.99570106   101.38313115
 H      9   1   2     1.091324628776   115.70409369   217.87951858
 O     12   9   1     1.467933644985   164.54401992   306.61934322
 H     14  12   9     0.969235512084    93.83715446    42.04517348

---------------------------
INTERNAL COORDINATES (A.U.)
---------------------------
 C      0   0   0     0.000000000000     0.00000000     0.00000000
 C      1   0   0     2.524171549902     0.00000000     0.00000000
 H      1   2   0     2.046137089497   125.23181653     0.00000000
 C      2   1   3     2.850864266582   111.84240675   177.77822394
 H      2   1   3     2.046908928156   124.89089796   359.77285896
 C      4   2   1     2.916887451628   102.89554439    13.59539752
 H      4   2   1     2.071083099731   110.19810176   254.58755214
 H      4   2   1     2.063949096477   112.82558915   135.24359087
 C      1   2   3     2.826934974751   111.19702265   182.79725267
 H      6   4   2     2.059201285365   113.13947300   215.39151772
 H      6   4   2     2.066015147056   109.34493086    94.97027937
 H      9   1   2     2.192239910439   108.99570106   101.38313115
 H      9   1   2     2.062304671590   115.70409369   217.87951858
 O     12   9   1     2.773992571790   164.54401992   306.61934322
 H     14  12   9     1.831589677109    93.83715446    42.04517348

---------------------
BASIS SET INFORMATION
---------------------
There are 3 groups of distinct atoms

 Group   1 Type C   : 19s6p2d contracted to 5s5p2d pattern {88111/21111/11}
 Group   2 Type H   : 5s2p contracted to 3s2p pattern {311/11}
 Group   3 Type O   : 19s6p2d contracted to 5s5p2d pattern {88111/21111/11}

Atom   0C    basis set group =>   1
Atom   1C    basis set group =>   1
Atom   2H    basis set group =>   2
Atom   3C    basis set group =>   1
Atom   4H    basis set group =>   2
Atom   5C    basis set group =>   1
Atom   6H    basis set group =>   2
Atom   7H    basis set group =>   2
Atom   8C    basis set group =>   1
Atom   9H    basis set group =>   2
Atom  10H    basis set group =>   2
Atom  11H    basis set group =>   2
Atom  12H    basis set group =>   2
Atom  13O    basis set group =>   3
Atom  14H    basis set group =>   2
---------------------------------
AUXILIARY/C BASIS SET INFORMATION
---------------------------------
There are 3 groups of distinct atoms

 Group   1 Type C   : 8s6p5d3f1g contracted to 8s6p5d3f1g pattern {11111111/111111/11111/111/1}
 Group   2 Type H   : 4s3p2d1f contracted to 4s3p2d1f pattern {1111/111/11/1}
 Group   3 Type O   : 8s6p5d3f1g contracted to 8s6p5d3f1g pattern {11111111/111111/11111/111/1}

Atom   0C    basis set group =>   1
Atom   1C    basis set group =>   1
Atom   2H    basis set group =>   2
Atom   3C    basis set group =>   1
Atom   4H    basis set group =>   2
Atom   5C    basis set group =>   1
Atom   6H    basis set group =>   2
Atom   7H    basis set group =>   2
Atom   8C    basis set group =>   1
Atom   9H    basis set group =>   2
Atom  10H    basis set group =>   2
Atom  11H    basis set group =>   2
Atom  12H    basis set group =>   2
Atom  13O    basis set group =>   3
Atom  14H    basis set group =>   2
--------------
CABS BASIS SET
--------------
There are 3 groups of distinct atoms

 Group   1 Type C   : 15s10p6d3f1g contracted to 15s10p6d3f1g pattern {111111111111111/1111111111/111111/111/1}
 Group   2 Type H   : 8s5p2d contracted to 8s5p2d pattern {11111111/11111/11}
 Group   3 Type O   : 15s10p6d3f1g contracted to 15s10p6d3f1g pattern {111111111111111/1111111111/111111/111/1}

Atom   0C    basis set group =>   1
Atom   1C    basis set group =>   1
Atom   2H    basis set group =>   2
Atom   3C    basis set group =>   1
Atom   4H    basis set group =>   2
Atom   5C    basis set group =>   1
Atom   6H    basis set group =>   2
Atom   7H    basis set group =>   2
Atom   8C    basis set group =>   1
Atom   9H    basis set group =>   2
Atom  10H    basis set group =>   2
Atom  11H    basis set group =>   2
Atom  12H    basis set group =>   2
Atom  13O    basis set group =>   3
Atom  14H    basis set group =>   2


           ************************************************************
           *        Program running with 8 parallel MPI-processes     *
           *              working on a common directory               *
           ************************************************************
------------------------------------------------------------------------------
                             ORCA STARTUP CALCULATIONS
------------------------------------------------------------------------------
------------------------------------------------------------------------------
                   ___                                                        
                  /   \      - P O W E R E D   B Y -                         
                 /     \                                                     
                 |  |  |   _    _      __       _____    __    __             
                 |  |  |  | |  | |    /  \     |  _  \  |  |  /  |          
                  \  \/   | |  | |   /    \    | | | |  |  | /  /          
                 / \  \   | |__| |  /  /\  \   | |_| |  |  |/  /          
                |  |  |   |  __  | /  /__\  \  |    /   |      \           
                |  |  |   | |  | | |   __   |  |    \   |  |\   \          
                \     /   | |  | | |  |  |  |  | |\  \  |  | \   \       
                 \___/    |_|  |_| |__|  |__|  |_| \__\ |__|  \__/        
                                                                              
                      - O R C A' S   B I G   F R I E N D -                    
                                      &                                       
                       - I N T E G R A L  F E E D E R -                       
                                                                              
 v1 FN, 2020, v2 2021, v3 2022-2024                                           
------------------------------------------------------------------------------


----------------------
SHARK INTEGRAL PACKAGE
----------------------

Number of atoms                             ...     15
Number of basis functions                   ...    297
Number of shells                            ...    153
Maximum angular momentum                    ...      2
Integral batch strategy                     ... SHARK/LIBINT Hybrid
RI-J (if used) integral strategy            ... SPLIT-RIJ (Revised 2003 algorithm where possible)
Printlevel                                  ...      1
Contraction scheme used                     ... PARTIAL GENERAL contraction
Prescreening option                         ... SCHWARTZ
   Thresh                                   ... 1.000e-10
   Tcut                                     ... 1.000e-11
   Tpresel                                  ... 1.000e-11 
Coulomb Range Separation                    ... NOT USED
Exchange Range Separation                   ... NOT USED
Multipole approximations                    ... NOT USED
Finite Nucleus Model                        ... NOT USED
CABS basis                                  ... AVAILABLE
   # of basis functions in CABS             ...    927
   # of shells in CABS                      ...    345
   Maximum angular momentum in CABS         ...      4
F12 Gamma exponent                          ...  0.900000
F12-Geminal                                 ...  6 primitives
l =0 ng=6 ofs=0
   a( 0) =     0.220850853  d( 0)=    -0.314424804 
   a( 1) =     1.004019154  d( 1)=    -0.303695753 
   a( 2) =     3.621217265  d( 2)=    -0.168069685 
   a( 3) =    12.162483048  d( 3)=    -0.098115813 
   a( 4) =    45.855331575  d( 4)=    -0.060246641 
   a( 5) =   254.234600970  d( 5)=    -0.037263542 
Auxiliary Coulomb fitting basis             ... NOT available
Auxiliary J/K fitting basis                 ... NOT available
Auxiliary Correlation fitting basis         ... AVAILABLE
   # of basis functions in Aux-C            ...    756
   # of shells in Aux-C                     ...    228
   Maximum angular momentum in Aux-C        ...      4
Auxiliary 'external' fitting basis          ... NOT available

Checking pre-screening integrals            ... done (  0.0 sec) Dimension = 153
Save PGC pre-screening integrals            ... done (  0.0 sec) Dimension = 153
Calculate PGC overlap integrals             ... done (  0.0 sec) Dimension = 117
Calculating pre-screening integrals (ORCA)  ... done (  0.1 sec) Dimension = 117
Shell pair information
Shell pair cut-off parameter TPreSel        ...   1.0e-11
Total number of shell pairs                 ...     11781
Shell pairs after pre-screening             ...     10026
Total number of primitive shell pairs       ...     15786
Primitive shell pairs kept                  ...     12323
          la=0 lb=0:   3342 shell pairs
          la=1 lb=0:   3896 shell pairs
          la=1 lb=1:   1110 shell pairs
          la=2 lb=0:   1041 shell pairs
          la=2 lb=1:    560 shell pairs
          la=2 lb=2:     77 shell pairs

Checking whether 4 symmetric matrices of dimension 297 fit in memory
:Max Core in MB      =   9000.00
 MB in use           =     65.05
 MB left             =   8934.95
 MB needed           =      1.35
 Data fit in memory  = YES
Calculating RI/C V-Matrix + Cholesky decomp.... done (  0.0 sec)
Calculating Nuclear repulsion               ... done (  0.0 sec) ENN=    231.043783915676 Eh

Diagonalization of the overlap matrix:
Smallest eigenvalue                        ... 6.333e-05
Time for diagonalization                   ...    0.010 sec
Threshold for overlap eigenvalues          ... 1.000e-07
Number of eigenvalues below threshold      ... 0
Time for construction of square roots      ...    0.004 sec
Total time needed                          ...    0.015 sec

-------------------
DFT GRID GENERATION
-------------------

General Integration Accuracy     IntAcc      ... 4.388
Radial Grid Type                 RadialGrid  ... OptM3 with GC (2021)
Angular Grid (max. ang.)         AngularGrid ... 4 (Lebedev-302)
Angular grid pruning method      GridPruning ... 4 (adaptive)
Weight generation scheme         WeightScheme... mBecke (2022)
Basis function cutoff            BFCut       ... 1.0000e-10
Integration weight cutoff        WCut        ... 1.0000e-14
Partially contracted basis set               ... off
Rotationally invariant grid construction     ... off
Angular grids for H and He will be reduced by one unit
Diffuse basis detected: some atoms will have their outermost
                        angular grid increased by 1.

Total number of grid points                  ...    66702
Total number of batches                      ...     1051
Average number of points per batch           ...       63
Average number of grid points per atom       ...     4447

---------------------
SHARK GRID GENERATION
---------------------

General Integration Accuracy     IntAcc      ... 4.388
Radial Grid Type                 RadialGrid  ... OptM3 with GC (2021)
Angular Grid (max. ang.)         AngularGrid ... 4 (Lebedev-302)
Angular grid pruning method      GridPruning ... 4 (adaptive)
Weight generation scheme         WeightScheme... mBecke (2022)
Basis function cutoff            BFCut       ... 1.0000e-10
Integration weight cutoff        WCut        ... 1.0000e-14
Partially contracted basis set               ... off
Rotationally invariant grid construction     ... off
Angular grids for H and He will be reduced by one unit
Diffuse basis detected: some atoms will have their outermost
                        angular grid increased by 1.
Steep s-basis detected: some atoms will have their radial
                        grid points doubled.

Total number of grid points                  ...   104669
Total number of batches                      ...     1643
Average number of points per batch           ...       63
Average number of grid points per atom       ...     6978
Grids setup in   1.1 sec
Initializing property integral containers    ... done (  0.0 sec)

SHARK setup successfully completed in   2.0 seconds

Maximum memory used throughout the entire STARTUP-calculation: 86.0 MB


           ************************************************************
           *        Program running with 8 parallel MPI-processes     *
           *              working on a common directory               *
           ************************************************************
-------------------------------------------------------------------------------
                                 ORCA GUESS
                   Start orbitals & Density for SCF / CASSCF
-------------------------------------------------------------------------------

------------
SCF SETTINGS
------------
Hamiltonian:
 Ab initio Hamiltonian  Method          .... Hartree-Fock(GTOs)


General Settings:
 Integral files         IntName         .... sp
 Hartree-Fock type      HFTyp           .... UHF
 Total Charge           Charge          ....    0
 Multiplicity           Mult            ....    2
 Number of Electrons    NEL             ....   47
 Basis Dimension        Dim             ....  261
 Nuclear Repulsion      ENuc            ....    231.0437839157 Eh

Convergence Acceleration:
 AO-DIIS                CNVDIIS         .... on
   Start iteration      DIISMaxIt       ....    12
   Startup error        DIISStart       ....  0.200000
   # of expansion vecs  DIISMaxEq       ....     5
   Bias factor          DIISBfac        ....   1.050
   Max. coefficient     DIISMaxC        ....  10.000
 MO-DIIS                CNVKDIIS        .... off
 Trust-Rad. Augm. Hess. CNVTRAH         .... auto
   Auto Start mean grad. ratio tolernc. ....  1.125000
   Auto Start start iteration           ....    50
   Auto Start num. interpolation iter.  ....    10
   Max. Number of Micro iterations      ....    24
   Max. Number of Macro iterations      .... Maxiter - #DIIS iter
   Number of Davidson start vectors     ....     2
   Converg. threshold    (grad. norm)   ....   5.000e-05
   Grad. Scal. Fac. for Micro threshold ....   0.100
   Minimum threshold for Micro iter.    ....   1.000e-02
   NR start threshold (gradient norm)   ....   1.000e-04
   Initial trust radius                 ....   0.400
   Minimum AH scaling param. (alpha)    ....   1.000
   Maximum AH scaling param. (alpha)    .... 1000.000
   Quad. conv. algorithm                .... NR
   White noise on init. David. guess    .... on
   Maximum white noise                  ....   0.010
   Pseudo random numbers                .... off
   Inactive MOs                         .... canonical
   Orbital update algorithm             .... Taylor
   Preconditioner                       .... Diag
   Full preconditioner red. dimension   ....   250
 SOSCF                 CNVSOSCF           .... on
   Start iteration     SOSCFMaxIt         ....   150
   Startup grad/error  SOSCFStart         ....  0.003300
   Hessian update      SOSCFHessUp        .... L-BFGS
   Autom. constraints  SOSCFAutoConstrain .... off
 Level Shifting         CNVShift        .... on
   Level shift para.    LevelShift      ....    0.2500
   Turn off err/grad.   ShiftErr        ....    0.0010
 Zerner damping         CNVZerner       .... off
 Static damping         CNVDamp         .... on
   Fraction old density DampFac         ....    0.7000
   Max. Damping (<1)    DampMax         ....    0.9800
   Min. Damping (>=0)   DampMin         ....    0.0000
   Turn off err/grad.   DampErr         ....    0.1000

SCF Procedure:
 Maximum # iterations   MaxIter         ....   125
 SCF integral mode      SCFMode         .... Direct
   Integral package                     .... SHARK and LIBINT hybrid scheme
 Reset frequency        DirectResetFreq ....    20
 Integral Threshold     Thresh          ....  1.000e-10 Eh
 Primitive CutOff       TCut            ....  1.000e-11 Eh

Convergence Tolerance:
 Convergence Check Mode ConvCheckMode   .... Total+1el-Energy
 Convergence forced     ConvForced      .... 1
 Energy Change          TolE            ....  1.000e-06 Eh
 1-El. energy change                    ....  1.000e-03 Eh
 Orbital Gradient       TolG            ....  5.000e-05
 Orbital Rotation angle TolX            ....  5.000e-05
 DIIS Error             TolErr          ....  1.000e-06

------------------------------
INITIAL GUESS: MODEL POTENTIAL
------------------------------
Loading Hartree-Fock densities                     ... done
Calculating cut-offs                               ... done
Initializing the effective Hamiltonian             ... done
Setting up the integral package (SHARK)            ... done
Starting the Coulomb interaction                   ... done (   0.1 sec)
Making the grid                                    ... done (   0.1 sec)
Mapping shells                                     ... done
Starting the XC term evaluation                    ... done (   0.0 sec)
Transforming the Hamiltonian                       ... done (   0.0 sec)
Diagonalizing the Hamiltonian                      ... done (   0.0 sec)
Back transforming the eigenvectors                 ... done (   0.0 sec)
Now organizing SCF variables                       ... done
                      ------------------
                      INITIAL GUESS DONE (   0.2 sec)
                      ------------------
             **** ENERGY FILE WAS UPDATED (sp.en.tmp) ****
Finished Guess after   1.8 sec
Maximum memory used throughout the entire GUESS-calculation: 18.0 MB


           ************************************************************
           *        Program running with 8 parallel MPI-processes     *
           *              working on a common directory               *
           ************************************************************

-------------------------------------------------------------------------------------------
                                      ORCA LEAN-SCF
                              memory conserving SCF solver
-------------------------------------------------------------------------------------------

----------------------------------------D-I-I-S--------------------------------------------
Iteration    Energy (Eh)           Delta-E    RMSDP     MaxDP     DIISErr   Damp  Time(sec)
-------------------------------------------------------------------------------------------
               ***  Starting incremental Fock matrix formation  ***
    1    -269.0250506759671225     0.00e+00  1.73e-03  1.48e-02  1.93e-01  0.700   3.3
    2    -269.1507259931937597    -1.26e-01  1.38e-03  1.24e-02  1.08e-01  0.700   3.1
                               ***Turning on AO-DIIS***
    3    -269.2244748751576822    -7.37e-02  8.48e-04  7.95e-03  5.85e-02  0.700   3.1
    4    -269.2728070581744646    -4.83e-02  2.20e-03  1.95e-02  4.33e-02  0.000   3.0
    5    -269.3973319275493736    -1.25e-01  7.56e-04  9.16e-03  2.03e-02  0.000   3.1
    6    -269.4082579793269474    -1.09e-02  8.09e-04  1.10e-02  1.58e-02  0.000   3.0
    7    -269.4181974433564619    -9.94e-03  8.84e-04  1.31e-02  1.48e-02  0.000   3.0
    8    -269.4263240487848066    -8.13e-03  5.44e-04  5.96e-03  9.96e-03  0.000   3.0
    9    -269.4297088057588780    -3.38e-03  4.23e-04  4.07e-03  6.42e-03  0.000   2.9
   10    -269.4313481082839985    -1.64e-03  2.95e-04  2.96e-03  3.92e-03  0.000   2.9
                              *** Initializing SOSCF ***
---------------------------------------S-O-S-C-F--------------------------------------
Iteration    Energy (Eh)           Delta-E    RMSDP     MaxDP     MaxGrad    Time(sec)
--------------------------------------------------------------------------------------
   11    -269.4319838689822859    -6.36e-04  1.69e-04  1.78e-03  2.24e-03     2.9
               *** Restarting incremental Fock matrix formation ***
   12    -269.4321799030257694    -1.96e-04  7.39e-05  9.57e-04  1.74e-03     3.2
   13    -269.4322227386759891    -4.28e-05  1.28e-04  1.49e-03  7.62e-04     2.6
   14    -269.4322602916758456    -3.76e-05  3.03e-05  3.78e-04  4.13e-04     2.7
   15    -269.4322667637880500    -6.47e-06  2.77e-05  3.07e-04  4.15e-04     2.5
   16    -269.4322699431162960    -3.18e-06  1.22e-05  1.70e-04  1.41e-04     2.5
   17    -269.4322707008670363    -7.58e-07  1.65e-05  2.09e-04  8.63e-05     2.4
                 **** Energy Check signals convergence ****

               *****************************************************
               *                     SUCCESS                       *
               *           SCF CONVERGED AFTER  17 CYCLES          *
               *****************************************************

             **** ENERGY FILE WAS UPDATED (sp.en.tmp) ****

----------------
TOTAL SCF ENERGY
----------------

Total Energy       :       -269.43227155917572 Eh           -7331.62484 eV

Components:
Nuclear Repulsion  :        231.04378391567553 Eh            6287.02099 eV
Electronic Energy  :       -500.47605547485125 Eh          -13618.64583 eV
One Electron Energy:       -823.31390594950835 Eh          -22403.51035 eV
Two Electron Energy:        322.83785047465710 Eh            8784.86453 eV

Virial components:
Potential Energy   :       -538.64363573046853 Eh          -14657.23849 eV
Kinetic Energy     :        269.21136417129276 Eh            7325.61365 eV
Virial Ratio       :          2.00082057229851

---------------
SCF CONVERGENCE
---------------

  Last Energy change         ...    7.5775e-07  Tolerance :   1.0000e-06
  Last MAX-Density change    ...    2.0946e-04  Tolerance :   1.0000e-05
  Last RMS-Density change    ...    1.6513e-05  Tolerance :   1.0000e-06
  Last DIIS Error            ...    2.2384e-03  Tolerance :   1.0000e-06
  Last Orbital Gradient      ...    8.6303e-05  Tolerance :   5.0000e-05
  Last Orbital Rotation      ...    7.1324e-04  Tolerance :   5.0000e-05


----------------------
UHF SPIN CONTAMINATION
----------------------

Expectation value of <S**2>     :     0.829669
Ideal value S*(S+1) for S=0.5   :     0.750000
Deviation                       :     0.079669

----------------
ORBITAL ENERGIES
----------------
                 SPIN UP ORBITALS
  NO   OCC          E(Eh)            E(eV) 
   0   1.0000     -20.626106      -561.2649 
   1   1.0000     -11.229774      -305.5777 
   2   1.0000     -11.228936      -305.5549 
   3   1.0000     -11.224522      -305.4348 
   4   1.0000     -11.221822      -305.3613 
   5   1.0000     -11.219450      -305.2968 
   6   1.0000      -1.386379       -37.7253 
   7   1.0000      -1.137995       -30.9664 
   8   1.0000      -0.970778       -26.4162 
   9   1.0000      -0.960752       -26.1434 
  10   1.0000      -0.794034       -21.6068 
  11   1.0000      -0.734521       -19.9873 
  12   1.0000      -0.695989       -18.9388 
  13   1.0000      -0.676590       -18.4109 
  14   1.0000      -0.670729       -18.2515 
  15   1.0000      -0.622994       -16.9525 
  16   1.0000      -0.552232       -15.0270 
  17   1.0000      -0.539444       -14.6790 
  18   1.0000      -0.529670       -14.4130 
  19   1.0000      -0.497533       -13.5386 
  20   1.0000      -0.494412       -13.4536 
  21   1.0000      -0.478863       -13.0305 
  22   1.0000      -0.465369       -12.6633 
  23   1.0000      -0.342109        -9.3093 
  24   0.0000       0.056858         1.5472 
  25   0.0000       0.060466         1.6454 
  26   0.0000       0.064941         1.7671 
  27   0.0000       0.072777         1.9804 
  28   0.0000       0.079221         2.1557 
  29   0.0000       0.083511         2.2725 
  30   0.0000       0.105074         2.8592 
  31   0.0000       0.109096         2.9687 
  32   0.0000       0.121603         3.3090 
  33   0.0000       0.127320         3.4646 
  34   0.0000       0.136892         3.7250 

                 SPIN DOWN ORBITALS
  NO   OCC          E(Eh)            E(eV) 
   0   1.0000     -20.588106      -560.2309 
   1   1.0000     -11.228550      -305.5444 
   2   1.0000     -11.225346      -305.4572 
   3   1.0000     -11.223032      -305.3942 
   4   1.0000     -11.221017      -305.3394 
   5   1.0000     -11.219862      -305.3080 
   6   1.0000      -1.244313       -33.8595 
   7   1.0000      -1.133205       -30.8361 
   8   1.0000      -0.969072       -26.3698 
   9   1.0000      -0.949793       -25.8452 
  10   1.0000      -0.782416       -21.2906 
  11   1.0000      -0.726918       -19.7804 
  12   1.0000      -0.678809       -18.4713 
  13   1.0000      -0.641981       -17.4692 
  14   1.0000      -0.627954       -17.0875 
  15   1.0000      -0.541508       -14.7352 
  16   1.0000      -0.536130       -14.5888 
  17   1.0000      -0.506694       -13.7878 
  18   1.0000      -0.496350       -13.5064 
  19   1.0000      -0.491149       -13.3648 
  20   1.0000      -0.481905       -13.1133 
  21   1.0000      -0.476458       -12.9651 
  22   1.0000      -0.346636        -9.4324 
  23   0.0000       0.056798         1.5456 
  24   0.0000       0.060495         1.6461 
  25   0.0000       0.061379         1.6702 
  26   0.0000       0.065267         1.7760 
  27   0.0000       0.074783         2.0350 
  28   0.0000       0.079307         2.1581 
  29   0.0000       0.088445         2.4067 
  30   0.0000       0.107815         2.9338 
  31   0.0000       0.111179         3.0253 
  32   0.0000       0.125118         3.4046 
  33   0.0000       0.134174         3.6511 
*Only the first 10 virtual orbitals were printed.

                    ********************************
                    * MULLIKEN POPULATION ANALYSIS *
                    ********************************

--------------------------------------------
MULLIKEN ATOMIC CHARGES AND SPIN POPULATIONS
--------------------------------------------
   0 C :   -0.190005   -0.359163
   1 C :   -0.217220    0.363491
   2 H :    0.145645    0.028895
   3 C :   -0.186474   -0.046877
   4 H :    0.141152   -0.031446
   5 C :   -0.169531   -0.032227
   6 H :    0.103690    0.015582
   7 H :    0.111996    0.009299
   8 C :   -0.181626    0.312650
   9 H :    0.120796    0.005355
  10 H :    0.106174    0.008647
  11 H :    0.137922   -0.134705
  12 H :    0.111364   -0.016572
  13 O :   -0.300315    0.927643
  14 H :    0.266432   -0.050572
Sum of atomic charges         :    0.0000000
Sum of atomic spin populations:    1.0000000

-----------------------------------------------------
MULLIKEN REDUCED ORBITAL CHARGES AND SPIN POPULATIONS
-----------------------------------------------------
CHARGE
  0 C s       :     3.133787  s :     3.133787
      pz      :     0.982069  p :     2.975067
      px      :     0.961208
      py      :     1.031790
      dz2     :     0.022935  d :     0.081152
      dxz     :     0.006710
      dyz     :     0.012720
      dx2y2   :     0.021809
      dxy     :     0.016978

  1 C s       :     3.173802  s :     3.173802
      pz      :     0.980838  p :     2.963392
      px      :     0.976271
      py      :     1.006284
      dz2     :     0.021349  d :     0.080026
      dxz     :     0.007837
      dyz     :     0.017814
      dx2y2   :     0.015467
      dxy     :     0.017558

  2 H s       :     0.825063  s :     0.825063
      pz      :     0.006921  p :     0.029293
      px      :     0.006323
      py      :     0.016048

  3 C s       :     3.036037  s :     3.036037
      pz      :     1.032814  p :     3.045060
      px      :     1.069530
      py      :     0.942716
      dz2     :     0.026190  d :     0.105377
      dxz     :     0.018562
      dyz     :     0.016916
      dx2y2   :     0.022959
      dxy     :     0.020750

  4 H s       :     0.830232  s :     0.830232
      pz      :     0.009502  p :     0.028616
      px      :     0.009516
      py      :     0.009598

  5 C s       :     3.000136  s :     3.000136
      pz      :     1.006427  p :     3.061964
      px      :     1.012133
      py      :     1.043405
      dz2     :     0.019040  d :     0.107431
      dxz     :     0.028491
      dyz     :     0.016873
      dx2y2   :     0.014350
      dxy     :     0.028677

  6 H s       :     0.863349  s :     0.863349
      pz      :     0.018723  p :     0.032961
      px      :     0.006128
      py      :     0.008110

  7 H s       :     0.854569  s :     0.854569
      pz      :     0.006976  p :     0.033436
      px      :     0.016299
      py      :     0.010160

  8 C s       :     3.017580  s :     3.017580
      pz      :     1.078292  p :     3.053700
      px      :     1.051783
      py      :     0.923624
      dz2     :     0.028121  d :     0.110346
      dxz     :     0.019551
      dyz     :     0.014651
      dx2y2   :     0.025658
      dxy     :     0.022365

  9 H s       :     0.845594  s :     0.845594
      pz      :     0.006462  p :     0.033610
      px      :     0.009172
      py      :     0.017977

 10 H s       :     0.861971  s :     0.861971
      pz      :     0.013348  p :     0.031855
      px      :     0.009280
      py      :     0.009227

 11 H s       :     0.793730  s :     0.793730
      pz      :     0.017408  p :     0.068349
      px      :     0.036143
      py      :     0.014797

 12 H s       :     0.852001  s :     0.852001
      pz      :     0.020527  p :     0.036634
      px      :     0.009099
      py      :     0.007008

 13 O s       :     3.912421  s :     3.912421
      pz      :     1.404048  p :     4.372010
      px      :     1.325649
      py      :     1.642313
      dz2     :     0.000584  d :     0.015884
      dxz     :     0.005111
      dyz     :     0.003725
      dx2y2   :     0.003396
      dxy     :     0.003068

 14 H s       :     0.671165  s :     0.671165
      pz      :     0.020455  p :     0.062403
      px      :     0.018793
      py      :     0.023155


SPIN
  0 C s       :    -0.047971  s :    -0.047971
      pz      :    -0.142300  p :    -0.315722
      px      :    -0.133777
      py      :    -0.039644
      dz2     :     0.003517  d :     0.004529
      dxz     :     0.000825
      dyz     :    -0.000244
      dx2y2   :     0.000776
      dxy     :    -0.000344

  1 C s       :     0.043750  s :     0.043750
      pz      :     0.151181  p :     0.322353
      px      :     0.137650
      py      :     0.033521
      dz2     :    -0.002277  d :    -0.002611
      dxz     :    -0.001126
      dyz     :     0.000758
      dx2y2   :    -0.000618
      dxy     :     0.000652

  2 H s       :     0.031953  s :     0.031953
      pz      :    -0.001415  p :    -0.003058
      px      :    -0.001224
      py      :    -0.000419

  3 C s       :    -0.013351  s :    -0.013351
      pz      :    -0.009026  p :    -0.037688
      px      :    -0.008789
      py      :    -0.019874
      dz2     :     0.000254  d :     0.004162
      dxz     :     0.000383
      dyz     :     0.001721
      dx2y2   :    -0.000129
      dxy     :     0.001933

  4 H s       :    -0.034416  s :    -0.034416
      pz      :     0.001660  p :     0.002970
      px      :     0.001371
      py      :    -0.000062

  5 C s       :    -0.012701  s :    -0.012701
      pz      :    -0.004178  p :    -0.020546
      px      :    -0.007610
      py      :    -0.008759
      dz2     :    -0.000176  d :     0.001020
      dxz     :     0.000126
      dyz     :     0.000534
      dx2y2   :     0.000472
      dxy     :     0.000064

  6 H s       :     0.016138  s :     0.016138
      pz      :    -0.000092  p :    -0.000556
      px      :    -0.000038
      py      :    -0.000427

  7 H s       :     0.009775  s :     0.009775
      pz      :    -0.000084  p :    -0.000476
      px      :    -0.000017
      py      :    -0.000375

  8 C s       :     0.065845  s :     0.065845
      pz      :     0.065356  p :     0.253220
      px      :     0.157584
      py      :     0.030280
      dz2     :    -0.001120  d :    -0.006414
      dxz     :    -0.001564
      dyz     :    -0.000919
      dx2y2   :    -0.001549
      dxy     :    -0.001263

  9 H s       :     0.005355  s :     0.005355
      pz      :    -0.000002  p :     0.000000
      px      :     0.000064
      py      :    -0.000061

 10 H s       :     0.008815  s :     0.008815
      pz      :     0.000148  p :    -0.000167
      px      :    -0.000168
      py      :    -0.000147

 11 H s       :    -0.168454  s :    -0.168454
      pz      :     0.012990  p :     0.033749
      px      :     0.019759
      py      :     0.001000

 12 H s       :    -0.019144  s :    -0.019144
      pz      :     0.000555  p :     0.002572
      px      :     0.001898
      py      :     0.000119

 13 O s       :     0.008427  s :     0.008427
      pz      :     0.365815  p :     0.918616
      px      :     0.530389
      py      :     0.022411
      dz2     :     0.000373  d :     0.000600
      dxz     :    -0.000668
      dyz     :     0.000679
      dx2y2   :    -0.000375
      dxy     :     0.000592

 14 H s       :    -0.053267  s :    -0.053267
      pz      :     0.001449  p :     0.002695
      px      :     0.003357
      py      :    -0.002111



                     *******************************
                     * LOEWDIN POPULATION ANALYSIS *
                     *******************************

-------------------------------------------
LOEWDIN ATOMIC CHARGES AND SPIN POPULATIONS
-------------------------------------------
   0 C :   -0.035002   -0.165329
   1 C :   -0.024798    0.181829
   2 H :    0.013886   -0.009340
   3 C :   -0.019940    0.005233
   4 H :    0.010649    0.009523
   5 C :   -0.000694   -0.001842
   6 H :    0.018592    0.008268
   7 H :    0.013801    0.004535
   8 C :    0.011602    0.120501
   9 H :    0.018251    0.001160
  10 H :    0.019158    0.004385
  11 H :   -0.077111    0.025826
  12 H :    0.017243    0.004597
  13 O :    0.089625    0.804331
  14 H :   -0.055261    0.006323

----------------------------------------------------
LOEWDIN REDUCED ORBITAL CHARGES AND SPIN POPULATIONS
----------------------------------------------------
CHARGE
  0 C s       :     2.728554  s :     2.728554
      pz      :     0.945686  p :     2.887856
      px      :     0.945214
      py      :     0.996956
      dz2     :     0.076693  d :     0.418592
      dxz     :     0.057761
      dyz     :     0.088259
      dx2y2   :     0.107994
      dxy     :     0.087886

  1 C s       :     2.731591  s :     2.731591
      pz      :     0.942767  p :     2.877308
      px      :     0.952717
      py      :     0.981825
      dz2     :     0.066989  d :     0.415899
      dxz     :     0.058163
      dyz     :     0.100896
      dx2y2   :     0.082584
      dxy     :     0.107266

  2 H s       :     0.797704  s :     0.797704
      pz      :     0.052348  p :     0.188410
      px      :     0.048328
      py      :     0.087734

  3 C s       :     2.681673  s :     2.681673
      pz      :     0.979451  p :     2.927043
      px      :     0.996809
      py      :     0.950783
      dz2     :     0.100957  d :     0.411225
      dxz     :     0.064357
      dyz     :     0.074287
      dx2y2   :     0.089095
      dxy     :     0.082530

  4 H s       :     0.800253  s :     0.800253
      pz      :     0.057810  p :     0.189098
      px      :     0.063112
      py      :     0.068177

  5 C s       :     2.685179  s :     2.685179
      pz      :     0.967103  p :     2.913942
      px      :     0.972702
      py      :     0.974137
      dz2     :     0.071701  d :     0.401573
      dxz     :     0.096494
      dyz     :     0.073108
      dx2y2   :     0.061147
      dxy     :     0.099122

  6 H s       :     0.791216  s :     0.791216
      pz      :     0.083322  p :     0.190192
      px      :     0.056889
      py      :     0.049981

  7 H s       :     0.798526  s :     0.798526
      pz      :     0.047852  p :     0.187673
      px      :     0.086523
      py      :     0.053299

  8 C s       :     2.678154  s :     2.678154
      pz      :     0.996291  p :     2.892402
      px      :     0.944951
      py      :     0.951160
      dz2     :     0.093116  d :     0.417842
      dxz     :     0.069445
      dyz     :     0.066305
      dx2y2   :     0.101187
      dxy     :     0.087790

  9 H s       :     0.794703  s :     0.794703
      pz      :     0.051215  p :     0.187045
      px      :     0.061306
      py      :     0.074524

 10 H s       :     0.792512  s :     0.792512
      pz      :     0.072058  p :     0.188329
      px      :     0.065708
      py      :     0.050563

 11 H s       :     0.710464  s :     0.710464
      pz      :     0.120639  p :     0.366647
      px      :     0.185758
      py      :     0.060249

 12 H s       :     0.794611  s :     0.794611
      pz      :     0.090317  p :     0.188145
      px      :     0.051782
      py      :     0.046047

 13 O s       :     3.493810  s :     3.493810
      pz      :     1.387223  p :     4.374861
      px      :     1.334146
      py      :     1.653492
      dz2     :     0.000824  d :     0.041704
      dxz     :     0.018907
      dyz     :     0.009275
      dx2y2   :     0.007326
      dxy     :     0.005372

 14 H s       :     0.671799  s :     0.671799
      pz      :     0.114691  p :     0.383462
      px      :     0.102302
      py      :     0.166469


SPIN
  0 C s       :    -0.010288  s :    -0.010288
      pz      :    -0.091995  p :    -0.187061
      px      :    -0.083811
      py      :    -0.011256
      dz2     :     0.016672  d :     0.032021
      dxz     :     0.001358
      dyz     :     0.002881
      dx2y2   :     0.007732
      dxy     :     0.003377

  1 C s       :     0.009336  s :     0.009336
      pz      :     0.096470  p :     0.193885
      px      :     0.087079
      py      :     0.010336
      dz2     :    -0.012676  d :    -0.021393
      dxz     :    -0.001930
      dyz     :    -0.000616
      dx2y2   :    -0.004240
      dxy     :    -0.001931

  2 H s       :     0.008164  s :     0.008164
      pz      :    -0.008006  p :    -0.017504
      px      :    -0.007083
      py      :    -0.002414

  3 C s       :    -0.001782  s :    -0.001782
      pz      :    -0.001942  p :    -0.011818
      px      :    -0.002210
      py      :    -0.007665
      dz2     :     0.002889  d :     0.018833
      dxz     :     0.001480
      dyz     :     0.006390
      dx2y2   :     0.000845
      dxy     :     0.007230

  4 H s       :    -0.008805  s :    -0.008805
      pz      :     0.008927  p :     0.018328
      px      :     0.007926
      py      :     0.001475

  5 C s       :    -0.001496  s :    -0.001496
      pz      :    -0.001888  p :    -0.008990
      px      :    -0.003515
      py      :    -0.003588
      dz2     :     0.000351  d :     0.008644
      dxz     :     0.000476
      dyz     :     0.002934
      dx2y2   :     0.002453
      dxy     :     0.002432

  6 H s       :     0.007956  s :     0.007956
      pz      :     0.000314  p :     0.000311
      px      :    -0.000085
      py      :     0.000082

  7 H s       :     0.004947  s :     0.004947
      pz      :    -0.000272  p :    -0.000412
      px      :     0.000089
      py      :    -0.000229

  8 C s       :     0.012848  s :     0.012848
      pz      :     0.037519  p :     0.139981
      px      :     0.089222
      py      :     0.013240
      dz2     :    -0.004384  d :    -0.032327
      dxz     :    -0.008767
      dyz     :    -0.004802
      dx2y2   :    -0.009592
      dxy     :    -0.004782

  9 H s       :     0.001774  s :     0.001774
      pz      :    -0.000046  p :    -0.000613
      px      :    -0.000139
      py      :    -0.000429

 10 H s       :     0.004058  s :     0.004058
      pz      :    -0.000015  p :     0.000328
      px      :     0.000223
      py      :     0.000120

 11 H s       :    -0.051746  s :    -0.051746
      pz      :     0.030895  p :     0.077571
      px      :     0.046846
      py      :    -0.000170

 12 H s       :    -0.006805  s :    -0.006805
      pz      :     0.003412  p :     0.011401
      px      :     0.007454
      py      :     0.000536

 13 O s       :     0.016913  s :     0.016913
      pz      :     0.314428  p :     0.790390
      px      :     0.463431
      py      :     0.012531
      dz2     :     0.000015  d :    -0.002973
      dxz     :    -0.001604
      dyz     :    -0.000594
      dx2y2   :    -0.000556
      dxy     :    -0.000234

 14 H s       :    -0.027692  s :    -0.027692
      pz      :     0.012276  p :     0.034015
      px      :     0.021681
      py      :     0.000057



                      *****************************
                      * MAYER POPULATION ANALYSIS *
                      *****************************

  NA   - Mulliken gross atomic population
  ZA   - Total nuclear charge
  QA   - Mulliken gross atomic charge
  VA   - Mayer's total valence
  BVA  - Mayer's bonded valence
  FA   - Mayer's free valence

  ATOM       NA         ZA         QA         VA         BVA        FA
  0 C      6.1900     6.0000    -0.1900     3.9998     3.9372     0.0626
  1 C      6.2172     6.0000    -0.2172     3.9970     3.9274     0.0696
  2 H      0.8544     1.0000     0.1456     0.9759     0.9749     0.0010
  3 C      6.1865     6.0000    -0.1865     4.2194     4.2185     0.0009
  4 H      0.8588     1.0000     0.1412     0.9751     0.9739     0.0012
  5 C      6.1695     6.0000    -0.1695     4.1596     4.1592     0.0004
  6 H      0.8963     1.0000     0.1037     1.0005     1.0003     0.0003
  7 H      0.8880     1.0000     0.1120     0.9931     0.9930     0.0001
  8 C      6.1816     6.0000    -0.1816     4.1490     4.0977     0.0513
  9 H      0.8792     1.0000     0.1208     0.9988     0.9987     0.0000
 10 H      0.8938     1.0000     0.1062     1.0019     1.0018     0.0001
 11 H      0.8621     1.0000     0.1379     1.0679     1.0334     0.0346
 12 H      0.8886     1.0000     0.1114     1.0023     1.0019     0.0005
 13 O      8.3003     8.0000    -0.3003     1.8268     1.0449     0.7818
 14 H      0.7336     1.0000     0.2664     0.9499     0.9466     0.0033

  Mayer bond orders larger than 0.100000
B(  0-C ,  1-C ) :   1.8661 B(  0-C ,  2-H ) :   0.9601 B(  0-C ,  8-C ) :   1.0440 
B(  1-C ,  3-C ) :   1.0773 B(  1-C ,  4-H ) :   0.9569 B(  3-C ,  5-C ) :   1.0958 
B(  3-C ,  6-H ) :   0.9584 B(  3-C ,  7-H ) :   0.9710 B(  5-C ,  8-C ) :   1.0497 
B(  5-C ,  9-H ) :   0.9703 B(  5-C , 10-H ) :   0.9686 B(  8-C , 11-H ) :   0.9070 
B(  8-C , 12-H ) :   0.9607 B( 13-O , 14-H ) :   0.9277 

-------
TIMINGS
-------

Total SCF time: 0 days 0 hours 0 min 53 sec 

Total time                  ....      53.421 sec
Sum of individual times     ....      50.970 sec  ( 95.4%)

SCF preparation             ....       1.619 sec  (  3.0%)
Fock matrix formation       ....      48.187 sec  ( 90.2%)
  Startup                   ....       0.014 sec  (  0.0% of F)
  Coulomb+Exchange Fock     ....      50.468 sec  (104.7% of F)
Diagonalization             ....       0.000 sec  (  0.0%)
Density matrix formation    ....       0.127 sec  (  0.2%)
Total Energy calculation    ....       0.058 sec  (  0.1%)
Population analysis         ....       0.034 sec  (  0.1%)
Orbital Transformation      ....       0.085 sec  (  0.2%)
Orbital Orthonormalization  ....       0.000 sec  (  0.0%)
DIIS solution               ....       0.607 sec  (  1.1%)
SOSCF solution              ....       0.250 sec  (  0.5%)
Finished LeanSCF after  53.4 sec

Maximum memory used throughout the entire LEANSCF-calculation: 21.1 MB


           ************************************************************
           *        Program running with 8 parallel MPI-processes     *
           *              working on a common directory               *
           ************************************************************

------------------------------------------------------------------------------
                         ORCA PROPERTY INTEGRAL CALCULATIONS
------------------------------------------------------------------------------

GBWName                                   ... sp.gbw
Number of atoms                           ...     15
Number of basis functions                 ...    297
Max core memory                           ...   9000 MB

Dipole integrals                          ... YES
Quadrupole integrals                      ...  NO
Linear momentum integrals                 ... YES
Angular momentum integrals                ... YES
Higher moments length integrals           ...  NO
Higher moments velocity integrals         ...  NO
Kinetic energy integrals                  ...  NO
GIAO right hand sides                     ...  NO
GIAO dipole derivative integrals          ...  NO
SOC integrals                             ...  NO
EPR diamagnetic integrals (GIAO)          ...  NO
EPR gauge integrals                       ...  NO
Field gradient integrals                  ...  NO (   0 nuclei)
Spin-dipole/Fermi contact integrals       ...  NO (   0 nuclei)
Contact density integrals                 ...  NO (   0 nuclei)
Nucleus-orbit integrals                   ...  NO (   0 nuclei)
Geometric perturbations                   ...  NO (  15 nuclei)

Choice of electric origin   ... Center of mass
Position of electric origin ... (  0.3612,  0.1278, -0.0443) 
Choice of magnetic origin   ... GIAO
Position of magnetic origin ... (  0.0000,  0.0000,  0.0000) 

Calculating integrals                     ... Electric Dipole (Length)     done (  0.0 sec)
Calculating integrals                     ... Linear Momentum              done (  0.0 sec)
Calculating integrals                     ... Angular Momentum  (ElOri)    done (  0.0 sec)

Property integrals calculated in   0.0 sec

Maximum memory used throughout the entire PROPINT-calculation: 18.9 MB


           ************************************************************
           *        Program running with 8 parallel MPI-processes     *
           *              working on a common directory               *
           ************************************************************


--------------------------------------------------------------------------------
                             ORCA-MATRIX DRIVEN CI
--------------------------------------------------------------------------------

--------------------------------
AUTOMATIC CHOICE OF INCORE LEVEL
--------------------------------

Memory available                           ...   4500.00 MB
Memory needed for S+T                      ...    219.84 MB
Memory needed for J+K                      ...    440.30 MB
Memory needed for DIIS                     ...   3077.74 MB
Memory needed for 3-ext                    ...   1828.13 MB
Memory needed for 4-ext                    ...  12085.99 MB
Memory needed for triples                  ...    507.81 MB
 -> Final InCoreLevel    ... 3
 -> check shows that triples correction can be computed


Wavefunction type
-----------------
Correlation treatment                      ...      CCSD     
Single excitations                         ... ON
Orbital optimization                       ... OFF
Calculation of Z vector                    ... OFF
Calculation of Brueckner orbitals          ... OFF
Perturbative triple excitations            ... ON
Calculation of F12 correction              ... ON
   Using RI for F12 correction             ... ON
Frozen core treatment                      ... chemical core (12 el)
Reference Wavefunction                     ... UHF
  Alpha-MOs occ    :     6 ...   23 ( 18 MO's/ 18 electrons)
  Beta-MOs occ     :     6 ...   22 ( 17 MO's/ 17 electrons)
  Alpha-MOs virt   :    24 ...  260 (237 MO's              )
  Beta-MOs virt    :    23 ...  260 (238 MO's              )
Number of AO's                             ...    261
Number of electrons                        ...     47
Number of correlated electrons             ...     35

Algorithmic settings
--------------------
Integral transformation                    ... Separate K and J transformations
K(C) Formation                             ... AO-EXCHANGE STORED
Maximum number of iterations               ...        50
Convergence tolerance (max. residuum)      ... 2.500e-05
Level shift for amplitude update           ... 2.000e-01
Maximum number of DIIS vectors             ...         7
DIIS turned on at iteration                ...         0
Damping before turning on DIIS             ...     0.500
Damping after turning on DIIS              ...     0.000
Pair specific amplitude update             ... OFF
Natural orbital iterations                 ... OFF
Perturbative natural orbital generation    ... OFF
Printlevel                                 ... 2

Memory handling:
----------------
Maximum memory for working arrays          ...   4500 MB
Data storage in matrix containers          ... UNCOMPRESSED
Data type for integral storage             ... DOUBLE
In-Core Storage of quantities:
   Amplitudes+Sigma Vector      ... YES
   J+K operators                ... YES
   DIIS vectors                 ... YES
   3-external integrals         ... NO
   4-external integrals         ... NO


Initializing the integral package          ... done
Warning: reference  - re-canonicalizations have been set to INT 1 VIRT 1
Fock densities were made 
Making Fock matrix and reference energy:

--------------------------
UNRESTRICTED FOCK OPERATOR
--------------------------

Recanonicalizing the internal orbitals
Recanonicalizing the virtual orbitals
Storing new orbitals
Time needed for Fock operator              ...            6.062 sec
Reference energy                           ...   -269.432271559

-------------------------
SHARK HALF TRANSFORMATION
-------------------------

Number of basis functions                ...    261
Number of operators                      ...      2
   Operator  0:    6-  23

   Operator  1:    6-  22

Integral generator used                  ... SHARK
Contraction scheme used                  ... SEGMENTED CONTRACTION
MaxCore in resort                        ...   9000 MB

Half transformed integrals for op=   0   ... sp.SHARK_MNPQ0.tmp
Resorted half transformed integrals      ... sp._PQMN_0.tmp
Half transformed integrals for op=   1   ... sp.SHARK_MNPQ1.tmp
Resorted half transformed integrals      ... sp._PQMN_1.tmp
Starting integral generation + half trafo... 
Half trafo (segmented) done. Total time =  8.3 sec. integrals=  6.2 sec trafo=  2.0 sec
Starting integral resorting              ... done (  0.4 sec)

SHARK half integral transformation done. Total time =  8.7 sec.

----------------------------------
J-TRAFO SECOND HALF TRANSFORMATION
----------------------------------

Generate (ij|kl)                        ... NO
Generate (ij|ka)                        ... YES
Generate (ij|ab)                        ... YES
Generate (ia|bc)                        ... NO
Generate (ab|cd)                        ... NO
Generate (pq|rs)                        ... NO

Number of operators                     ... 2
   Operator 0                           ...    6-  23 to   24- 260
   PQMN-Container name                  ... sp._PQMN_0.tmp
   IJKA-Container name    op=0,0        ... sp._IJKA_0.tmp
   IJAB-Container name    op=0,0        ... sp._IJAB_0.tmp
   IJKA-Container name    op=0,1        ... sp._IJKA_2.tmp
   IJAB-Container name    op=0,1        ... sp._IJAB_2.tmp
   Operator 1                           ...    6-  22 to   23- 260
   PQMN-Container name                  ... sp._PQMN_1.tmp
   IJKA-Container name    op=1,0        ... sp._IJKA_3.tmp
   IJAB-Container name    op=1,0        ... sp._IJAB_3.tmp
   IJKA-Container name    op=1,1        ... sp._IJKA_1.tmp
   IJAB-Container name    op=1,1        ... sp._IJAB_1.tmp

Starting integral transformations       ... done
Completed Coulomb integral formation in   0.2 sec


-------------------------
SHARK HALF TRANSFORMATION (Exchange order)
-------------------------

Number of basis functions                   ...    261
Number of operators                         ...      2
   Operator  0:    6-  23 (p-index in (p*|q*))
   Operator  0:    6- 260 (q-index in (p*|q*)
   Operator  1:    6-  22 (p-index in (p*|q*))
   Operator  1:    6- 260 (q-index in (p*|q*)
Integral generator used                     ... SHARK
Contraction scheme used                     ... SEGMENTED CONTRACTION
MaxCore in resort                           ...   9000 MB

Half transformed integrals for op=   0      ... sp.SHARK_MNPQ0.tmp
Resorted half transformed integrals         ... sp._PMQN_0.tmp
Half transformed integrals for op=   1      ... sp.SHARK_MNPQ1.tmp
Resorted half transformed integrals         ... sp._PMQN_1.tmp
Half transformed integrals for op=0/1       ... sp.SHARK_MNPQ01.tmp
Resorted half transformed integrals         ... sp._PMQN_2.tmp
Half transformed integrals for op=1/0       ... sp.SHARK_MNPQ10.tmp
Resorted half transformed integrals         ... sp._PMQN_3.tmp

Half trafo (segmented) done. Total time = 38.6 sec. integrals= 10.3 sec trafo= 16.7 sec

----------------------
SHARK INTEGRAL SORTING (Exchange)
----------------------

Input container                             ... sp.SHARK_MNPQ0.tmp
Output container                            ... sp._PMQN_0.tmp
Range of AO-indices                         ...    0 -  260
Range of bra indices i                      ...    6 -   23
Range of ket indices j                      ...    6 -  260
Symmetric i,j range                         ... NO
Number of (i,j) pairs generated             ... 4590
Max Core memory in MB                       ...   9000

Available core memory in MB                 ...   8900.97
MB needed for one item                      ...      0.52
Fixed MB needed                             ...      0.00
Number of items                             ...       574
Number of batches                           ...         1
Items treated per batch                     ...       574
Batch   0                                   ...      0-   573 (   574)
   => Closing output file and leaving

----------------------
SHARK INTEGRAL SORTING (Exchange)
----------------------

Input container                             ... sp.SHARK_MNPQ1.tmp
Output container                            ... sp._PMQN_1.tmp
Range of AO-indices                         ...    0 -  260
Range of bra indices i                      ...    6 -   22
Range of ket indices j                      ...    6 -  260
Symmetric i,j range                         ... NO
Number of (i,j) pairs generated             ... 4335
Max Core memory in MB                       ...   9000

Available core memory in MB                 ...   8901.76
MB needed for one item                      ...      0.52
Fixed MB needed                             ...      0.00
Number of items                             ...       542
Number of batches                           ...         1
Items treated per batch                     ...       542
Batch   0                                   ...      0-   541 (   542)
   => Closing output file and leaving

----------------------
SHARK INTEGRAL SORTING (Exchange)
----------------------

Input container                             ... sp.SHARK_MNPQ01.tmp
Output container                            ... sp._PMQN_2.tmp
Range of AO-indices                         ...    0 -  260
Range of bra indices i                      ...    6 -   23
Range of ket indices j                      ...    6 -  260
Symmetric i,j range                         ... NO
Number of (i,j) pairs generated             ... 4590
Max Core memory in MB                       ...   9000

Available core memory in MB                 ...   8902.54
MB needed for one item                      ...      0.52
Fixed MB needed                             ...      0.00
Number of items                             ...       574
Number of batches                           ...         1
Items treated per batch                     ...       574
Batch   0                                   ...      0-   573 (   574)
   => Closing output file and leaving

----------------------
SHARK INTEGRAL SORTING (Exchange)
----------------------

Input container                             ... sp.SHARK_MNPQ10.tmp
Output container                            ... sp._PMQN_3.tmp
Range of AO-indices                         ...    0 -  260
Range of bra indices i                      ...    6 -   22
Range of ket indices j                      ...    6 -  260
Symmetric i,j range                         ... NO
Number of (i,j) pairs generated             ... 4335
Max Core memory in MB                       ...   9000

Available core memory in MB                 ...   8903.32
MB needed for one item                      ...      0.52
Fixed MB needed                             ...      0.00
Number of items                             ...       542
Number of batches                           ...         1
Items treated per batch                     ...       542
Batch   0                                   ...      0-   541 (   542)
   => Closing output file and leaving
done ( 11.2 sec)

SHARK half integral transformation done. Total time = 50.0 sec.

----------------------------------
K-TRAFO SECOND HALF TRANSFORMATION
----------------------------------

Generate (ik|jl)                        ... YES
Generate (ik|ja)                        ... YES
Generate (ia|jb)                        ... YES
Generate (ib|ac)                        ... YES
Generate (ac|bd)                        ... NO
Generate (pr|qs)                        ... NO

Number of operators                     ... 2
   Operator 0                           ...    6-  23 to   24- 260
   Operator 1                           ...    6-  22 to   23- 260

Starting integral transformations       ... done
Completed Exchange integral formation in  14.6 sec


------------------------------
Initializing F12 data (SHARK)
------------------------------

Mapping basis set                  ... done
Dimension of the orbital basis set  = 261
Dimension of the CABS basis set     = 927
Dimension of the AUX basis set      = 756
Threshold for CABS orthogonalization = 1.000e-08
Test shows that OBS-bases are identical for ORCA and SHARK (good)
Test shows that CABS-bases are identical for ORCA and SHARK (good)
Will use an exponential correlation factor -Exp(-gamma r12)/gamma (gamma= 0.900) fit to 6 Gaussians 
Correlation factor:   
  NGauss  :          6      
  Gaussian expansion: 
    a( 0)=    0.1948458954898069  d( 0)=   -0.3837757042467722 
    a( 1)=    0.9387038354476187  d( 1)=   -0.3334018173527373 
    a( 2)=    3.4610351718196344  d( 2)=   -0.1753946778698117 
    a( 3)=   11.7049811259564009  d( 3)=   -0.1006409547412648 
    a( 4)=   44.2276114110074730  d( 4)=   -0.0614475918190023 
    a( 5)=  245.3721697105246733  d( 5)=   -0.0379425511812079 
Calculating one-electron matrices                       ... (SHARK)done (      0.3 sec)
Calculating pre-screening matrices:                     ... 
     (LIBINT-0)       .... 1/r12 done          (      0.2 sec)
     (LIBINT-1)       .... f12/r12 done        (      0.1 sec)
     (LIBINT-2)       .... f12 done            (      0.1 sec)
     (LIBINT-3)       .... f12^2 done          (      0.2 sec)
     (LIBINT-4)       .... [f12,[T1,f12]] done (      0.2 sec)
                                                        ... done (      0.7 sec)
Making CABS spaces                                      ... done (      0.2 sec)
Calculating 2-index 2-center F12 integrals              ... 
Two index explicit correlation integrals  op=0          ...(SHARK-0) done (      0.0 sec)  Metric   done (      0.0 sec)
Two index explicit correlation integrals  op=1          ...(SHARK-1) done (      0.0 sec)  Metric   done (      0.0 sec)
Two index explicit correlation integrals  op=2          ...(SHARK-2) done (      0.0 sec)  Metric   done (      0.0 sec)
Two index explicit correlation integrals  op=3          ...(SHARK-3) done (      0.0 sec)  Metric   done (      0.0 sec)
Two index explicit correlation integrals  op=4          ...(SHARK-4) done (      0.0 sec)  Metric   done (      0.2 sec)
                                                                     done (      0.3 sec)

-----------------------
SPIN UNRESTRICTED GUESS
-----------------------

Spin-components of the MP2 energy:
EMP2(aa)=     -0.125011441
EMP2(bb)=     -0.111821864
EMP2(ab)=     -0.734696676

Initial guess performed in     0.524 sec
E(0)                                       ...   -269.432271559
E(MP2)                                     ...     -0.971529980
Initial E(tot)                             ...   -270.403801539
<T|T>                                      ...      0.309579031
Number of pairs included                   ... 595

------------------------------------------------
                  UHF COUPLED CLUSTER ITERATIONS
------------------------------------------------

Number of amplitudes to be optimized       ...     25413036

Iter       E(tot)           E(Corr)          Delta-E          Residual     Time      <S|S>**1/2
  0   -270.403801792     -0.971530233     -0.000000253      0.022209762  109.43      0.000424162
                           *** Turning on DIIS ***
  1   -270.427998699     -0.995727140     -0.024196907      0.004873919  112.00      0.053789999
  2   -270.453249817     -1.020978258     -0.025251118      0.004852267  113.31      0.071312627
  3   -270.460916473     -1.028644914     -0.007666656      0.003286918  114.61      0.091251051
  4   -270.463348011     -1.031076452     -0.002431538      0.002491585  115.46      0.106604937
  5   -270.464704949     -1.032433390     -0.001356938      0.001396620  116.19      0.123123462
  6   -270.465406635     -1.033135076     -0.000701686      0.000851562  117.26      0.134375199
  7   -270.465597507     -1.033325948     -0.000190872      0.000420499  118.50      0.138707315
  8   -270.465632297     -1.033360738     -0.000034790      0.000275603  117.40      0.139825238
[...]
      dxz     :     0.064121
      dyz     :     0.104130
      dx2y2   :     0.085836
      dxy     :     0.110429
  2 H s       :     0.783103  s :     0.783103
      pz      :     0.054752  p :     0.196357
      px      :     0.050728
      py      :     0.090878
  3 C s       :     2.686327  s :     2.686327
      pz      :     0.975806  p :     2.917184
      px      :     0.995572
      py      :     0.945806
      dz2     :     0.102352  d :     0.424562
      dxz     :     0.066878
      dyz     :     0.078352
      dx2y2   :     0.091327
      dxy     :     0.085654
  4 H s       :     0.785772  s :     0.785772
      pz      :     0.059834  p :     0.196662
      px      :     0.065475
      py      :     0.071353
  5 C s       :     2.689496  s :     2.689496
      pz      :     0.964634  p :     2.902580
      px      :     0.968431
      py      :     0.969515
      dz2     :     0.075809  d :     0.416103
      dxz     :     0.097727
      dyz     :     0.076349
      dx2y2   :     0.065742
      dxy     :     0.100477
  6 H s       :     0.771920  s :     0.771920
      pz      :     0.086750  p :     0.200313
      px      :     0.060106
      py      :     0.053458
  7 H s       :     0.780550  s :     0.780550
      pz      :     0.051225  p :     0.198081
      px      :     0.089807
      py      :     0.057049
  8 C s       :     2.686325  s :     2.686325
      pz      :     0.987163  p :     2.859341
      px      :     0.921993
      py      :     0.950186
      dz2     :     0.093679  d :     0.432636
      dxz     :     0.072612
      dyz     :     0.071725
      dx2y2   :     0.103867
      dxy     :     0.090752
  9 H s       :     0.776175  s :     0.776175
      pz      :     0.054539  p :     0.197174
      px      :     0.064578
      py      :     0.078057
 10 H s       :     0.773715  s :     0.773715
      pz      :     0.075648  p :     0.198646
      px      :     0.068970
      py      :     0.054028
 11 H s       :     0.678637  s :     0.678637
      pz      :     0.127843  p :     0.389528
      px      :     0.195339
      py      :     0.066346
 12 H s       :     0.773271  s :     0.773271
      pz      :     0.093649  p :     0.196967
      px      :     0.053386
      py      :     0.049932
 13 O s       :     3.482482  s :     3.482482
      pz      :     1.396811  p :     4.400130
      px      :     1.374449
      py      :     1.628870
      dz2     :     0.006407  d :     0.068075
      dxz     :     0.022452
      dyz     :     0.015402
      dx2y2   :     0.012280
      dxy     :     0.011534
 14 H s       :     0.676466  s :     0.676466
      pz      :     0.122408  p :     0.408228
      px      :     0.113561
      py      :     0.172259

SPIN
  0 C s       :    -0.003102  s :    -0.003102
      pz      :    -0.016592  p :    -0.034196
      px      :    -0.014076
      py      :    -0.003528
      dz2     :     0.007804  d :     0.017491
      dxz     :     0.000009
      dyz     :     0.002705
      dx2y2   :     0.004905
      dxy     :     0.002068
  1 C s       :     0.002924  s :     0.002924
      pz      :     0.031878  p :     0.059789
      px      :     0.024647
      py      :     0.003263
      dz2     :    -0.001756  d :    -0.002411
      dxz     :    -0.000160
      dyz     :     0.000476
      dx2y2   :    -0.000648
      dxy     :    -0.000323
  2 H s       :     0.001745  s :     0.001745
      pz      :    -0.001336  p :    -0.003064
      px      :    -0.001015
      py      :    -0.000713
  3 C s       :    -0.000625  s :    -0.000625
      pz      :    -0.000309  p :    -0.002779
      px      :    -0.000383
      py      :    -0.002087
      dz2     :     0.001172  d :     0.005632
      dxz     :     0.000878
      dyz     :     0.001479
      dx2y2   :     0.000209
      dxy     :     0.001893
  4 H s       :    -0.002504  s :    -0.002504
      pz      :     0.003025  p :     0.005643
      px      :     0.002160
      py      :     0.000459
  5 C s       :    -0.000769  s :    -0.000769
      pz      :    -0.001256  p :    -0.003192
      px      :    -0.000367
      py      :    -0.001570
      dz2     :     0.000444  d :     0.010246
      dxz     :     0.000721
      dyz     :     0.003778
      dx2y2   :     0.002558
      dxy     :     0.002746
  6 H s       :     0.003637  s :     0.003637
      pz      :     0.000173  p :     0.000067
      px      :    -0.000041
      py      :    -0.000065
  7 H s       :     0.002765  s :     0.002765
      pz      :    -0.000107  p :    -0.000058
      px      :     0.000127
      py      :    -0.000078
  8 C s       :     0.010135  s :     0.010135
      pz      :     0.044323  p :     0.157723
      px      :     0.106320
      py      :     0.007081
      dz2     :     0.000499  d :    -0.007414
      dxz     :    -0.003449
      dyz     :    -0.000783
      dx2y2   :    -0.002622
      dxy     :    -0.001059
  9 H s       :     0.002250  s :     0.002250
      pz      :     0.000041  p :    -0.000289
      px      :    -0.000045
      py      :    -0.000285
 10 H s       :     0.006228  s :     0.006228
      pz      :     0.000018  p :     0.001087
      px      :     0.000704
      py      :     0.000365
 11 H s       :    -0.011206  s :    -0.011206
      pz      :     0.030067  p :     0.075187
      px      :     0.045366
      py      :    -0.000247
 12 H s       :     0.001566  s :     0.001566
      pz      :     0.004037  p :     0.013271
      px      :     0.008985
      py      :     0.000248
 13 O s       :     0.018502  s :     0.018502
      pz      :     0.263494  p :     0.654563
      px      :     0.381270
      py      :     0.009799
      dz2     :     0.001189  d :     0.005239
      dxz     :     0.002141
      dyz     :     0.000232
      dx2y2   :     0.000999
      dxy     :     0.000677
 14 H s       :    -0.015732  s :    -0.015732
      pz      :     0.011779  p :     0.031649
      px      :     0.020302
      py      :    -0.000432


                      *****************************
                      * MAYER POPULATION ANALYSIS *
                      *****************************

  NA   - Mulliken gross atomic population
  ZA   - Total nuclear charge
  QA   - Mulliken gross atomic charge
  VA   - Mayer's total valence
  BVA  - Mayer's bonded valence
  FA   - Mayer's free valence

  ATOM       NA         ZA         QA         VA         BVA        FA
  0 C      6.1679     6.0000    -0.1679     4.0861     3.6816     0.4045
  1 C      6.1970     6.0000    -0.1970     4.0717     3.6671     0.4046
  2 H      0.8391     1.0000     0.1609     0.9748     0.9095     0.0653
  3 C      6.2744     6.0000    -0.2744     4.3053     3.9600     0.3453
  4 H      0.8429     1.0000     0.1571     0.9749     0.9088     0.0661
  5 C      6.2292     6.0000    -0.2292     4.2054     3.8554     0.3500
  6 H      0.8599     1.0000     0.1401     0.9948     0.9251     0.0697
  7 H      0.8552     1.0000     0.1448     0.9871     0.9187     0.0685
  8 C      6.2410     6.0000    -0.2410     4.2100     3.7992     0.4108
  9 H      0.8420     1.0000     0.1580     0.9862     0.9195     0.0667
 10 H      0.8615     1.0000     0.1385     0.9975     0.9287     0.0688
 11 H      0.8212     1.0000     0.1788     1.0838     0.9963     0.0875
 12 H      0.8517     1.0000     0.1483     0.9954     0.9275     0.0679
 13 O      8.3432     8.0000    -0.3432     2.1531     1.2215     0.9316
 14 H      0.7738     1.0000     0.2262     1.0015     0.9296     0.0719

  Mayer bond orders larger than 0.100000
B(  0-C ,  1-C ) :   1.7073 B(  0-C ,  2-H ) :   0.8955 B(  0-C ,  8-C ) :   1.0066 
B(  1-C ,  3-C ) :   1.0282 B(  1-C ,  4-H ) :   0.8926 B(  3-C ,  5-C ) :   1.0172 
B(  3-C ,  6-H ) :   0.8909 B(  3-C ,  7-H ) :   0.9037 B(  5-C ,  8-C ) :   0.9765 
B(  5-C ,  9-H ) :   0.9027 B(  5-C , 10-H ) :   0.8979 B(  8-C , 11-H ) :   0.7526 
B(  8-C , 12-H ) :   0.8921 B( 11-H , 13-O ) :   0.1946 B( 13-O , 14-H ) :   0.9068 




--------------------------------------------------------------------------------
                                    TIMINGS
--------------------------------------------------------------------------------


Total execution time                   ...     2879.862 sec

Fock Matrix Formation                  ...        6.062 sec (  0.2%)
Initial Guess                          ...        0.524 sec (  0.0%)
DIIS Solver                            ...       53.720 sec (  1.9%)
State Vector Update                    ...        1.519 sec (  0.1%)
Sigma-vector construction              ...     1331.678 sec ( 46.2%)
  <0|H|D>                              ...        0.354 sec (  0.0% of sigma)
  <D|H|D>(0-ext Fock)                  ...        3.850 sec (  0.3% of sigma)
  <D|H|D>(0-ext)                       ...       25.841 sec (  1.9% of sigma)
  <D|H|D>(2-ext Fock)                  ...        1.362 sec (  0.1% of sigma)
  <D|H|D>(2-ext)                       ...      105.945 sec (  8.0% of sigma)
  <D|H|D>(4-ext)                       ...      594.864 sec ( 44.7% of sigma)
  <S|H|0>                              ...      310.872 sec ( 23.3% of sigma)
  <S|H|S>                              ...        0.013 sec (  0.0% of sigma)
  <S|H|D>(1-ext)                       ...        0.673 sec (  0.1% of sigma)
  <D|H|S>(1-ext)                       ...        3.502 sec (  0.3% of sigma)
  Fock-dressing                        ...       54.386 sec (  4.1% of sigma)
  (ik|jl)-dressing                     ...       45.819 sec (  3.4% of sigma)
  (ij|ab),(ia|jb)-dressing             ...      172.247 sec ( 12.9% of sigma)
  Pair energies                        ...        0.493 sec (  0.0% of sigma)
Total Time for computing (T)           ...     1117.618 sec ( 38.8% of ALL)
  I/O of integral and amplitudes       ...      110.963 sec (  9.9% of (T))
  External N**7 contributions          ...      499.954 sec ( 44.7% of (T))
  Internal N**7 contributions          ...       55.269 sec (  4.9% of (T))
  N**6 triples energy contributions    ...      449.400 sec ( 40.2% of (T))


Maximum memory used throughout the entire MDCI-calculation: 7238.2 MB

-------------------------   --------------------
FINAL SINGLE POINT ENERGY      -270.660495351145
-------------------------   --------------------



           ************************************************************
           *        Program running with 8 parallel MPI-processes     *
           *              working on a common directory               *
           ************************************************************

------------------------------------------------------------------------------
                              ORCA PROPERTY CALCULATIONS
------------------------------------------------------------------------------

GBWName                                 ... sp.gbw
Number of atoms                         ...     15
Number of basis functions               ...    297
Max core memory                         ...   9000 MB

Electric properties:
Dipole moment                           ... YES
Quadrupole moment                       ...  NO
Static polarizability (Dipole/Dipole)   ...  NO
Static polarizability (Dipole/Quad.)    ...  NO
Static polarizability (Quad./Quad.)     ...  NO
Static polarizability (Velocity)        ...  NO
Static hyperpolarizability              ...  NO

Atomic electric properties:
Dipole moment                           ...  NO
Quadrupole moment                       ...  NO
Static polarizability                   ...  NO

Choice of electric origin               ... Center of mass
Position of electric origin             ...     0.361153     0.127779    -0.044323

General magnetic properties:
Magnetizability                         ...  NO

EPR properties:
g-Tensor (aka g-matrix)                 ...  NO
Zero-Field splitting spin-orbit         ...  NO
Zero-field splitting spin-spin          ...  NO
Hyperfine couplings                     ...  NO (   0 nuclei)
Quadrupole couplings                    ...  NO (   0 nuclei)
Contact density                         ...  NO (   0 nuclei)

NMR properties:
Chemical shifts                         ...  NO (   0 nuclei)
Spin-rotation constants                 ...  NO (   0 nuclei)
Spin-spin couplings                     ...  NO (   0 nuclei,    0 pairs)

Choice of magnetic origin               ... GIAO
Position of magnetic origin             ...     0.000000     0.000000     0.000000

Properties with geometric perturbations:
SCF Hessian                             ...  NO
IR spectrum                             ...  NO
VCD spectrum                            ...  NO
X-ray spectroscopy properties:
SCF XES/XAS/RIXS spectra                ...  NO

SCF SOC stabilization energy            ...  NO
Diagonal Born-Oppenheimer correction    ...  NO

-------------
DIPOLE MOMENT
-------------

Method             : SCF
Type of density    : Electron Density
Multiplicity       :   2
Irrep              :   0
Energy             :  -269.4322715591757174 Eh
Basis              : AO
                                X                 Y                 Z
Electronic contribution:      1.674940718       1.417987650      -0.417711854
Nuclear contribution   :     -2.056128903      -1.071367112       0.158574863
                        -----------------------------------------
Total Dipole Moment    :     -0.381188185       0.346620538      -0.259136991
                        -----------------------------------------
Magnitude (a.u.)       :      0.576716750
Magnitude (Debye)      :      1.465897482



--------------------
Rotational spectrum 
--------------------
 
Rotational constants in cm-1:             0.159766             0.082036             0.074049 
Rotational constants in MHz :          4789.670745          2459.366053          2219.944058 

Dipole components along the rotational axes: 
x,y,z [a.u.] :     0.388123     0.320397    -0.281617 
x,y,z [Debye]:     0.986531     0.814385    -0.715815 

 

-------------
DIPOLE MOMENT
-------------

Method             : MDCI(SD)
Type of density    : Electron Density
Multiplicity       :   2
Level              : Linearized density
Irrep              :   0
Energy             :     0.0000000000000000 Eh
Basis              : AO
                                X                 Y                 Z
Electronic contribution:      1.303694705       1.386654075      -0.210240761
Nuclear contribution   :     -2.056128903      -1.071367112       0.158574863
                        -----------------------------------------
Total Dipole Moment    :     -0.752434199       0.315286963      -0.051665897
                        -----------------------------------------
Magnitude (a.u.)       :      0.817454866
Magnitude (Debye)      :      2.077805142



--------------------
Rotational spectrum 
--------------------
 
Rotational constants in cm-1:             0.159766             0.082036             0.074049 
Rotational constants in MHz :          4789.670745          2459.366053          2219.944058 

Dipole components along the rotational axes: 
x,y,z [a.u.] :     0.761851     0.285551    -0.079224 
x,y,z [Debye]:     1.936471     0.725813    -0.201371 

 

Dipole moment calculation done in   0.0 sec 

Maximum memory used throughout the entire PROP-calculation: 17.1 MB

--------------------------------
SUGGESTED CITATIONS FOR THIS RUN
--------------------------------

Below you find a list of papers that are relevant to this ORCA run
We neither can nor want to force you to cite these papers, but we appreciate if you do
You receive ORCA, which is the product of decades of hard work by many enthusiastic individuals, for free
The only thing we kindly ask in return is that you cite our papers,
We deeply appreciate it, if you show your appreciation for ORCA by not just citing the generic ORCA reference.

Please note that relegating all ORCA citations to the supporting information does *not* help us.
SI sections are not indexed - citations you put there will not count into any citation statistics
But we need these citations in order to attract the funding resources that allow us to do what we are doing

Therefore, if you are a happy ORCA user, please consider citing a few of the papers listed below in the main body of your paper

In addition to the list printed below, the program has created the file sp.bibtex that contains the list in bibtex format
You can import this file easily into all common literature databanks and citation aid programs

It goes without saying that in many instances, there are alternative algorithms to achieve similar
results as the ones you have gotten from ORCA. It is, of course, also the case that in some instances
ORCA just re-implements algorithms worked out by others. We are fully aware of that and we are also
fully appreciative of our colleagues work. Hence this citation list should not be read as indicating
that the listed papers, which are focused on our own work, are the only ones worth citing. It simply
meant to make it easier for users to cite ORCA specific papers. It is not a substitute for doing your
own literature research and citing the relevant literature in a scientifically appropriate manner.

List of essential papers. We consider these as the minimum necessary citations

  1. Neese, F.
     Software update: the ORCA program system, version 6.0
     WIRES Comput. Molec. Sci. 2025 15(1), e70019
     doi.org/10.1002/wcms.70019

List of papers to cite with high priority. The work reported in these papers was absolutely
necessary for this run to complete.
Our perspective: the developers of density functionals and basis sets usually get cited in chemistry papers
Good! But without the algorithms to do something with them, the functionals or basis sets would not do anything.
Hence, in our opinion, the algorithm design and method developments papers are equally worthy of getting cited

  1. Pavosevic, F.; Neese, F.; Valeev, E.F.
     Geminal-spanning orbitals make explicitly correlated reduced-scaling coupled-cluster methods robust, yet simple
     J. Chem. Phys. 2014 141 , 
     doi.org/10.1063/1.4890002
  2. Neese, F.
     The SHARK Integral Generation and Digestion System
     J. Comp. Chem. 2022 44(3), 381
     doi.org/10.1002/jcc.26942

List of suggested additional citations. These are papers that are important in the 'surrounding' of 
of this run, or papers that preceded the highly important papers. If you like your results we are grateful for a citation.

  1. Neese, F.
     The ORCA program system
     WIRES Comput. Molec. Sci. 2012 2(1), 73-78
     doi.org/10.1002/wcms.81
  2. Neese, F.
     Software update: the ORCA program system, version 4.0
     WIRES Comput. Molec. Sci. 2018 8(1), 1-6
     doi.org/10.1002/wcms.1327
  3. Neese, F.; Wennmohs, F.; Becker, U.; Riplinger, C.
     The ORCA quantum chemistry program package
     J. Chem. Phys. 2020 152(22), 224108
     doi.org/10.1063/5.0004608
  4. Neese, F.
     Software update: The ORCA program system—Version 5.0
     WIRES Comput. Molec. Sci. 2022 12(1), e1606
     doi.org/10.1002/wcms.1606

List of optional additional citations

  1. Neese, F.
     Approximate second-order SCF convergence for spin unrestricted wavefunctions
     Chem. Phys. Lett. 2000 325(1-3), 93-98
     doi.org/10.1016/s0009-2614(00)00662-x

Timings for individual modules:

Sum of individual times          ...     2949.060 sec (=  49.151 min)
Startup calculation              ...        4.213 sec (=   0.070 min)   0.1 %
SCF iterations                   ...       55.879 sec (=   0.931 min)   1.9 %
Property integrals               ...        2.056 sec (=   0.034 min)   0.1 %
Property calculations            ...        2.027 sec (=   0.034 min)   0.1 %
MDCI module                      ...     2884.884 sec (=  48.081 min)  97.8 %
                             ****ORCA TERMINATED NORMALLY****
TOTAL RUN TIME: 0 days 0 hours 49 minutes 10 seconds 996 msec
Copying files back to submit directory...
