
                                 *****************
                                 * O   R   C   A *
                                 *****************

                                            #,                                       
                                            ###                                      
                                            ####                                     
                                            #####                                    
                                            ######                                   
                                           ########,                                 
                                     ,,################,,,,,                         
                               ,,#################################,,                 
                          ,,##########################################,,             
                       ,#########################################, ''#####,          
                    ,#############################################,,   '####,        
                  ,##################################################,,,,####,       
                ,###########''''           ''''###############################       
              ,#####''   ,,,,##########,,,,          '''####'''          '####       
            ,##' ,,,,###########################,,,                        '##       
           ' ,,###''''                  '''############,,,                           
         ,,##''                                '''############,,,,        ,,,,,,###''
      ,#''                                            '''#######################'''  
     '                                                          ''''####''''         
             ,#######,   #######,   ,#######,      ##                                
            ,#'     '#,  ##    ##  ,#'     '#,    #''#        ,####,    ,#,          
            ##       ##  ##   ,#'  ##            #'  '#       #'       ,# #          
            ##       ##  #######   ##           ,######,      #####,      #          
            '#,     ,#'  ##    ##  '#,     ,#' ,#      #,     #,   #      #          
             '#######'   ##     ##  '#######'  #'      '#     '####' #    #          



                #########################################################
                #                        -***-                          #
                #          Department of theory and spectroscopy        #
                #                                                       #
                #                      Frank Neese                      #
                #                                                       #
                #     Directorship, Architecture, Infrastructure        #
                #                    SHARK, DRIVERS                     #
                #        Core code/Algorithms in most modules           #
                #                                                       #
                #        Max Planck Institute fuer Kohlenforschung      #
                #                Kaiser Wilhelm Platz 1                 #
                #                 D-45470 Muelheim/Ruhr                 #
                #                      Germany                          #
                #                                                       #
                #                  All rights reserved                  #
                #                        -***-                          #
                #########################################################


                         Program Version 6.1.1  -  RELEASE   -
                                (GIT: $487d211c$)
                          ($2025-11-21 10:33:24 +0100$)


 With contributions from (in alphabetic order):
[Max-Planck-Institut fuer Kohlenforschung]                               
  Daniel Aravena         : Magnetic Suceptibility                        
  Michael Atanasov       : Ab Initio Ligand Field Theory (pilot matlab implementation)
  Alexander A. Auer      : GIAO ZORA, VPT2 properties, NMR spectrum      
  Ute Becker             : All parallelization in ORCA, NUMFREQ, NUMCALC 
  Giovanni Bistoni       : ED, misc. LED, open-shell LED, HFLD           
  Dmytro Bykov           : pre 5.0 version of the SCF Hessian            
  Marcos Casanova-Páez   : Triplet and SCS-CIS(D). UHF-(DLPNO)-IP/EA/STEOM-CCSD. UHF-CVS-IP/STEOM-CCSD   
  Vijay G. Chilkuri      : MRCI spin determinant printing, contributions to CSF-ICE 
  Pauline Colinet        : FMM embedding                                 
  Dipayan Datta          : RHF DLPNO-CCSD density                        
  Achintya Kumar Dutta   : EOM-CC, STEOM-CC                              
  Nicolas Foglia         : Exact transition moments, OPA infrastructure, MCD improvements    
  Dmitry Ganyushin       : Spin-Orbit,Spin-Spin,Magnetic field MRCI      
  Miquel Garcia-Rates    : C-PCM and meta-GGA Hessian, CCSD/C-PCM, Gaussian charge scheme 
  Tiago L. C. Gouveia    : GS-ROHF, GS-ROCIS                             
  Yang Guo               : DLPNO-NEVPT2, F12-NEVPT2, CIM, IAO-localization        
  Andreas Hansen         : Spin unrestricted coupled pair/coupled cluster methods 
  Ingolf Harden          : AUTO-CI MPn and infrastructure                
  Benjamin Helmich-Paris : MC-RPA, TRAH-(SCF,CASSCF), AVAS, COSX integrals, SCF dyn. polar., MC-PDFT, srDFT 
  Lee Huntington         : MR-EOM, pCC                                   
  Robert Izsak           : Overlap fitted RIJCOSX, COSX-SCS-MP3, EOM     
  Riya Kayal             : Wick's Theorem for AUTO-CI, AUTO-CI UHF-CCSDT 
  Emily Kempfer          : AUTO-CI RHF CISDT and CCSDT, approximate NEVPT4
  Christian Kollmar      : KDIIS, OOCD, Brueckner-CCSD(T), CCSD density, CASPT2, CASPT2-K, improved NEVPT2 
  Axel Koslowski         : Symmetry handling                             
  Simone Kossmann        : meta-GGA functionals, TD-DFT gradient, OOMP2, (MP2 Hessian; deprecated post 5.0) 
  Lucas Lang             : DCDCAS, Hyperfine gauge corrections, ICE-SOC+SSC
  Marvin Lechner         : AUTO-CI (C++ implementation), FIC-MRCC        
  Spencer Leger          : CASSCF response                               
  Dagmar Lenk            : GEPOL surface, SMD, ORCA-2-JSON               
  Dimitrios Liakos       : Extrapolation schemes; Compound Job, Property file
  Dimitrios Manganas     : Further ROCIS development; embedding schemes. LFT, Crystal Embedding 
  Dimitrios Pantazis     : SARC Basis sets                               
  Anastasios Papadopoulos: AUTO-CI, single reference methods and gradients 
  Taras Petrenko         : pre 6.0 DFT Hessian and TD-DFT gradient,  ECA, NRVS 
  Petra Pikulova         : Analytic Raman intensities                    
  Peter Pinski           : DLPNO-MP2, DLPNO-MP2 Gradient                 
  Shashank Vittal Rao    : ES-AILFT, MagRelax                            
  Christoph Reimann      : Effective Core Potentials                     
  Marius Retegan         : Local ZFS, SOC                                
  Christoph Riplinger    : Optimizer, TS searches, QM/MM, DLPNO-CCSD(T), (RO)-DLPNO pert. Triples 
  Michael Roemelt        : Original ROCIS implementation, recursive CI coupling coefficients
  Masaaki Saitow         : Open-shell DLPNO-CCSD energy and density      
  Barbara Sandhoefer     : DKH picture change effects                    
  Yorick L. A. Schmerwitz: GMF and freeze-and-release deltaSCF, NEB S-IDPP initial path                    
  Kantharuban Sivalingam : CASSCF convergence/infrastructure, NEVPT2, NEVPT3, NEVPT4(SD), FIC-MRCI and CEPA variants
  Bernardo de Souza      : ESD, SOC TD-DFT                               
  Georgi L. Stoychev     : AutoAux, RI-MP2 NMR, DLPNO-MP2 response, X2C  
  Van Anh Tran           : RI-MP2 g-tensors                              
  Willem Van den Heuvel  : Paramagnetic NMR                              
  Zikuan Wang            : NOTCH, Electric field optimization            
  Frank Wennmohs         : Technical directorship and infrastructure     
  Hang Xu                : AUTO-CI-Response properties                   
                                                                         
[FACCTs GmbH]                                                            
  Markus Bursch, Nicolas Foglia, Miquel Garcia-Rates, Ingolf Harden, Hagen Neugebauer, Anastasios Papadopoulos, 
  Christoph Riplinger, Bernardo de Souza, Georgi L. Stoychev                                                    
                                                                 
  APM, various basis sets, CI-OPT, improved COSX, DLPNO-Multilevel,           
  DOCKER, DRACO, updates on ESD, Fragmentator, GOAT, IRC, LR-CPCM, L-BFGS, MBIS, meta-GGA TD-DFT gradient, ML-optimized integration grids, 
  MM, NACMEs, nearIR, NEB, NEB-TS, NL-DFT gradient (VV10), 2- and 3-layer-ONIOM, interface openCOSMO-RS, QMMM,   
  Crystal-QMMM, RESP, rigid body optimization, SF, symmetry and pop. for TD-DFT, various functionals, SOLVATOR                                   
                                                                         
[Other institutions]                                                     
  V. Asgeirsson          : NEB                                           
  Christoph Bannwarth    : sTDA-DFT, sTD-DFT, PBEh-3c, B97-3c, D3        
  Giovanni Bistoni       : ETS/NOCV, ADLD/ADEX, COVALED                  
  Martin Brehm           : Molecular dynamics                            
  Ronald Cardenas        : ETS/NOCV                                      
  Martina Colucci        : COVALED                                       
  Sebastian Ehlert       : rSCAN, r2SCAN, r2SCAN-3c, D4, dhf basis sets  
  Marvin Friede          : D4 for Fr, Ra, Ac-Lr                          
  Lars Goerigk           : TD-DFT with DH, B97 family of functionals     
  Stefan Grimme          : VdW corrections, initial TS optimization, DFT functionals, gCP, sTDA/sTD-DF 
  Waldemar Hujo          : DFT-NL                                        
  H. Jonsson             : NEB                                           
  Holger Kruse           : gCP                                           
  Marcel Mueller         : wB97X-3c, vDZP basis set                      
  Hagen Neugebauer       : wr2SCAN, Native XTB                           
  Gianluca Regni         : ADLD/ADEX                                     
  Tobias Risthaus        : pre 6.0 range-separated hybrid DFT and stability analysis
  Lukas Wittmann         : regularized MP2, r2SCAN double-hybrids, wr2SCAN        
                                                                         
We gratefully acknowledge several colleagues who have allowed us to      
interface, adapt or use parts of their codes:                            
  Ed Valeev, F. Pavosevic, A. Kumar             : LibInt (2-el integral package), F12 methods 
  Garnet Chan, S. Sharma, J. Yang, R. Olivares  : DMRG                   
  Ulf Ekstrom                                   : XCFun DFT Library      
  Mihaly Kallay                                 : mrcc  (arbitrary order and MRCC methods)
  Frank Weinhold                                : gennbo (NPA and NBO analysis)           
  Simon Mueller                                 : openCOSMO-RS                            
  Christopher J. Cramer and Donald G. Truhlar   : smd solvation model                     
  S Lehtola, MJT Oliveira, MAL Marques          : LibXC Library                           
  Liviu Ungur et al                             : ANISO software                          


 Your calculation uses the libint2 library for the computation of 2-el integrals
 For citations please refer to: http://libint.valeyev.net

 Your ORCA version has been built with support for libXC version: 7.0.0
 For citations please refer to: https://libxc.gitlab.io

 This ORCA versions uses:
   CBLAS   interface :  Fast vector & matrix operations
   LAPACKE interface :  Fast linear algebra routines
   SCALAPACK package :  Parallel linear algebra routines
   Shared memory     :  Shared parallel matrices
   BLAS/LAPACK       :  OpenBLAS 0.3.29  USE64BITINT DYNAMIC_ARCH NO_AFFINITY Zen SINGLE_THREADED
        Core in use  :  Zen
   Copyright (c) 2011-2014, The OpenBLAS Project


  ***********************************
  * Starting time: Tue Mar 10 16:41:37 2026
  * Host name:     a2-14
  * Process ID:    380561
  * Working dir.:  /tmp/lscratch/avcopan/43472345
  ***********************************

NOTE: MaxCore=6000 MB was set to SCF,MP2,MDCI,CIPSI,MRCI,RASCI and CIS
      => If you want to overwrite this, your respective input block should be placed after the MaxCore statement


***************************************
The coordinates will be read from file: guess.xyz
***************************************


Your calculation utilizes the atom-pairwise dispersion correction
based on EEQ partial charges (D4)


Warning: RI is on but no J-basis has been assigned. Assigning Def2/J (nothing to worry about!)
================================================================================

----- Orbital basis set information -----
Your calculation utilizes the basis: def2-TZVPP
   F. Weigend and R. Ahlrichs, Phys. Chem. Chem. Phys. 7, 3297 (2005).

----- AuxJ basis set information -----
Your calculation utilizes the auxiliary basis: def2/J
   H-Rn: F. Weigend, Phys. Chem. Chem. Phys. 8, 1057 (2006).
   Fr-Lr: K. Eichkorn, F. Weigend, O. Treutler, R. Ahlrichs; Theor. Chem. Acc. 97, 119 (1997).

----- AuxC basis set information -----
Your calculation utilizes the auxiliary basis: def2-TZVPP/C
  H-La, Hf-Rn : A. Hellweg, C. Hattig, S. Hofener and W. Klopper, Theor. Chem. Acc. 117, 587 (2007).
        Ce-Lu : J. Chmela and M. E. Harding, Mol. Phys. (2018).

================================================================================
                                        WARNINGS
                       Please study these warnings very carefully!
================================================================================


WARNING: your system is open-shell and RHF/RKS was chosen
  ===> : WILL SWITCH to UHF/UKS


WARNING: The frozen-core approximation for MP2-gradient calculations is turned on by default.

WARNING: The environment variable RSH_COMMAND is not set!
  ===> : All Displacements for the Numerical Hessian or Gradient calculation
         will be started on localhost

WARNING: Geometry Optimization
  ===> : Switching off AutoStart
         For restart on a previous wavefunction, please use MOREAD

WARNING: The frozen-core approximation is turned on by default for 
         the MP2 part of double-hybrid DFT.

================================================================================
                                       INPUT FILE
================================================================================
NAME = opt.inp
|  1> % MaxCore 6000
|  2> ! PAL8
|  3> ! REVDSD-PBEP86-D4/2021 def2-TZVPP def2-TZVPP/c
|  4> ! VeryTightSCF DefGrid3
|  5> ! TightOpt
|  6> ! NumFreq
|  7> %geom
|  8>     InHess      read
|  9>     InHessName  "guess.hess"
| 10> end
| 11> * xyzfile 0 2 guess.xyz
| 12> 
| 13>                          ****END OF INPUT****
================================================================================

                       *****************************
                       * Geometry Optimization Run *
                       *****************************

Geometry optimization settings:
Update method            Update   .... BFGS
Choice of coordinates    CoordSys .... (2022) Redundant Internals
Initial Hessian          InHess   .... Read
Max. no of cycles        MaxIter  .... 50

Convergence Tolerances:
Energy Change            TolE     ....  1.0000e-06 Eh
Max. Gradient            TolMAXG  ....  1.0000e-04 Eh/bohr
RMS Gradient             TolRMSG  ....  3.0000e-05 Eh/bohr
Max. Displacement        TolMAXD  ....  1.0000e-03 bohr
RMS Displacement         TolRMSD  ....  6.0000e-04 bohr
Strict Convergence                .... False

------------------------------------------------------------------------------
                        ORCA OPTIMIZATION COORDINATE SETUP
------------------------------------------------------------------------------

The optimization will be done in redundant internal coordinates (2022)
Making redundant internal coordinates   ...  (2022 redundants) done
Evaluating the initial hessian          ... (Reading Exact Hessian)...  
InHessName: guess.hess	The file <guess.hess> is opened as a .hess file
done
done
Evaluating the coordinates              ...  done
Calculating the B-matrix                .... done
Calculating the G-matrix                .... done
The number of degrees of freedom        ....  308

    -----------------------------------------------------------------
                    Redundant Internal Coordinates


    -----------------------------------------------------------------
         Definition                    Initial Value    d2E/dq (diagonal element)
    -----------------------------------------------------------------
      1. B(C   1,C   0)                  1.5453         0.082343   
      2. B(C   2,C   1)                  1.5450         0.084491   
      3. B(C   3,C   2)                  1.5095         0.075217   
      4. B(C   4,C   0)                  1.5095         0.071910   
      5. B(C   4,C   3)                  1.3380         0.083568   
      6. B(H   5,C   0)                  1.0957         0.328749   
      7. B(H   6,C   0)                  1.0921         0.178584   
      8. B(H   7,C   1)                  1.0898         0.343314   
      9. B(H   8,C   1)                  1.0922         0.123326   
     10. B(H   9,C   2)                  1.0921         0.191081   
     11. B(H  10,C   2)                  1.0958         0.328566   
     12. B(H  11,C   3)                  1.0835         0.137098   
     13. B(H  12,C   4)                  1.0835         0.137992   
     14. B(O  13,H   8)                  2.9560         0.036684   
     15. B(H  14,C   4)                  2.3933         0.004240   
     16. B(H  14,O  13)                  0.9754         0.329227   
     17. B(H  14,H   9)                  3.0983         0.015708   
     18. B(H  14,C   2)                  3.0241         0.011047   
     19. B(H  14,H   6)                  2.9674         0.014711   
     20. B(H  14,C   0)                  2.9469         0.011398   
     21. B(H  14,H  11)                  2.8809         0.026423   
     22. B(H  14,C   1)                  3.0110         0.013054   
     23. B(H  14,H  12)                  2.7987         0.024736   
     24. B(H  14,H   8)                  2.6301         0.010583   
     25. B(H  14,C   3)                  2.4438         0.005549   
     26. A(C   1,C   0,H   6)          112.3810         0.004252   
     27. A(C   1,C   0,C   4)          102.9062         0.006241   
     28. A(C   4,C   0,H  14)           53.9552         0.001152   
     29. A(H   5,C   0,H   6)          106.8778         0.004707   
     30. A(H   5,C   0,H  14)          163.6225         0.008699   
     31. A(C   1,C   0,H  14)           77.2742         0.002773   
     32. A(C   1,C   0,H   5)          111.9639         0.005076   
     33. A(C   4,C   0,H   6)          112.9232         0.003651   
     34. A(H   6,C   0,H  14)           80.4163         0.002743   
     35. A(C   4,C   0,H   5)          109.8647         0.010928   
     36. A(C   2,C   1,H   8)          109.1275         0.003318   
     37. A(C   0,C   1,H   7)          112.7603         0.003845   
     38. A(C   0,C   1,C   2)          105.5219         0.007946   
     39. A(H   7,C   1,H   8)          107.6099         0.006981   
     40. A(C   2,C   1,H   7)          112.7677         0.004391   
     41. A(C   0,C   1,H   8)          108.9740         0.003367   
     42. A(H   7,C   1,H  14)          166.9447         0.003463   
     43. A(C   0,C   1,H  14)           72.6843         0.002406   
     44. A(C   2,C   1,H  14)           75.6378         0.002171   
     45. A(H   8,C   1,H  14)           59.4689         0.001922   
     46. A(C   3,C   2,H  10)          109.8083         0.023551   
     47. A(H  10,C   2,H  14)          163.1094         0.020538   
     48. A(H   9,C   2,H  10)          106.7869         0.010460   
     49. A(C   3,C   2,H  14)           53.3361         0.001198   
     50. A(C   1,C   2,H  14)           74.6963         0.002472   
     51. A(H   9,C   2,H  14)           83.5816         0.002076   
     52. A(C   1,C   2,H  10)          111.9093         0.004887   
     53. A(C   3,C   2,H   9)          112.9893         0.002748   
     54. A(C   1,C   2,C   3)          102.9190         0.006042   
     55. A(C   1,C   2,H   9)          112.5056         0.003829   
     56. A(H  11,C   3,H  14)          102.5786         0.001574   
     57. A(C   2,C   3,H  14)           96.9617         0.002880   
     58. A(C   4,C   3,H  14)           71.8733         0.001370   
     59. A(C   4,C   3,H  11)          124.8168         0.002531   
     60. A(C   2,C   3,H  11)          123.2927         0.004288   
     61. A(C   2,C   3,C   4)          111.8030         0.005802   
     62. A(H  12,C   4,H  14)          100.3392         0.001318   
     63. A(C   3,C   4,H  14)           76.0318         0.001437   
     64. A(C   3,C   4,H  12)          124.7909         0.002518   
     65. A(C   0,C   4,C   3)          111.8422         0.005676   
     66. A(C   0,C   4,H  12)          123.2825         0.004022   
     67. A(C   0,C   4,H  14)           95.3827         0.002481   
     68. A(C   0,H   6,H  14)           78.3055         0.004965   
     69. A(O  13,H   8,H  14)           18.9781         0.009720   
     70. A(C   1,H   8,O  13)          118.4885         0.013916   
     71. A(C   1,H   8,H  14)           99.5727         0.005582   
     72. A(C   2,H   9,H  14)           75.9142         0.004299   
     73. A(C   3,H  11,H  14)           55.8865         0.002487   
     74. A(C   4,H  12,H  14)           57.2743         0.002636   
     75. A(H   8,O  13,H  14)           61.2726         0.008014   
     76. A(H   6,H  14,O  13)          112.9567         0.004864   
     77. A(C   0,H  14,H  11)           71.4599         0.005073   
     78. A(C   0,H  14,H  12)           46.9057         0.004463   
     79. A(C   0,H  14,H   8)           45.1976         0.004442   
     80. A(C   4,H  14,O  13)          158.8885         0.001433   
     81. A(C   0,H  14,C   3)           50.8958         0.002957   
     82. A(C   0,H  14,C   4)           30.6621         0.002638   
     83. A(C   0,H  14,O  13)          131.1987         0.002237   
     84. A(C   2,H  14,H   9)           20.5041         0.005653   
     85. A(C   1,H  14,H   9)           42.3276         0.004516   
     86. A(C   0,H  14,H   9)           67.4810         0.006006   
     87. A(H   9,H  14,H  11)           52.4329         0.004832   
     88. A(H   9,H  14,H  12)           90.5061         0.008308   
     89. A(H   8,H  14,H   9)           47.9555         0.004011   
     90. A(C   3,H  14,H   9)           44.4376         0.005320   
     91. A(C   4,H  14,H   9)           69.9845         0.006501   
     92. A(H   9,H  14,O  13)          118.5101         0.004807   
     93. A(H  11,H  14,H  12)           53.8947         0.005166   
     94. A(H   8,H  14,H  11)           89.4271         0.005505   
     95. A(C   0,H  14,C   2)           48.6451         0.003017   
     96. A(C   3,H  14,H  11)           21.5349         0.003990   
     97. A(C   4,H  14,H  11)           46.9821         0.005123   
     98. A(C   2,H  14,H   8)           44.3417         0.004581   
     99. A(C   2,H  14,C   3)           29.7022         0.002709   
    100. A(H  11,H  14,O  13)          153.9782         0.002671   
    101. A(C   2,H  14,O  13)          134.8306         0.002226   
    102. A(H   8,H  14,H  12)           91.2274         0.005817   
    103. A(C   3,H  14,H  12)           47.8122         0.005245   
    104. A(C   1,H  14,H   6)           43.2975         0.004651   
    105. A(C   0,H  14,C   1)           30.0414         0.002656   
    106. A(C   4,H  14,H  12)           22.3865         0.004294   
    107. A(C   1,H  14,H  11)           71.1879         0.004520   
    108. A(C   1,H  14,H  12)           72.2908         0.004721   
    109. A(H  12,H  14,O  13)          148.7477         0.002812   
    110. A(C   1,H  14,H   8)           20.9584         0.004337   
    111. A(C   2,H  14,C   4)           50.0041         0.003122   
    112. A(C   1,H  14,C   3)           50.6586         0.002679   
    113. A(C   1,H  14,C   4)           50.9222         0.002676   
    114. A(C   2,H  14,H  12)           71.4073         0.005364   
    115. A(C   2,H  14,H  11)           45.5753         0.004353   
    116. A(C   1,H  14,O  13)          120.6377         0.002391   
    117. A(C   2,H  14,H   6)           68.1691         0.006005   
    118. A(C   1,H  14,C   2)           29.6660         0.002657   
    119. A(C   3,H  14,H   8)           70.2634         0.004272   
    120. A(C   4,H  14,H   8)           71.0019         0.004275   
    121. A(H   8,H  14,O  13)           99.7493         0.003990   
    122. A(C   0,H  14,H   6)           21.2782         0.005734   
    123. A(H   6,H  14,H  11)           91.5467         0.007926   
    124. A(H   6,H  14,H  12)           54.5978         0.004837   
    125. A(H   6,H  14,H   8)           49.4533         0.004113   
    126. A(C   3,H  14,C   4)           32.0950         0.003648   
    127. A(H   6,H  14,H   9)           85.0590         0.007902   
    128. A(C   3,H  14,H   6)           71.7627         0.006188   
    129. A(C   4,H  14,H   6)           46.4965         0.005251   
    130. A(C   3,H  14,O  13)          162.8463         0.001047   
    131. D(C   2,C   1,C   0,C   4)    -21.2447         0.003204   
    132. D(C   2,C   1,C   0,H   5)     96.6794         0.008829   
    133. D(C   2,C   1,C   0,H  14)    -69.1299         0.002110   
    134. D(H   7,C   1,C   0,H  14)    167.3600         0.003469   
    135. D(H   7,C   1,C   0,H   6)     93.4758         0.005976   
    136. D(H   7,C   1,C   0,H   5)    -26.8307         0.007735   
    137. D(H   7,C   1,C   0,C   4)   -144.7548         0.004487   
    138. D(C   2,C   1,C   0,H   6)   -143.0141         0.005110   
    139. D(H   9,C   2,C   1,C   0)    143.2292         0.004407   
    140. D(C   3,C   2,C   1,C   0)     21.3066         0.003266   
    141. D(C   3,C   2,C   1,H   8)    -95.6611         0.003377   
    142. D(H   9,C   2,C   1,H   7)    -93.2654         0.004321   
    143. D(C   3,C   2,C   1,H  14)    -45.7399         0.000961   
    144. D(H   9,C   2,C   1,H  14)     76.1827         0.002117   
    145. D(H   9,C   2,C   1,H   8)     26.2615         0.004426   
    146. D(C   3,C   2,C   1,H   7)    144.8121         0.003256   
    147. D(H  11,C   3,C   2,H   9)     47.8916         0.003436   
    148. D(H  11,C   3,C   2,C   1)    169.4865         0.002817   
    149. D(C   4,C   3,C   2,H   9)   -135.3654         0.002411   
    150. D(H  11,C   3,C   2,H  10)    -71.2043         0.001787   
    151. D(C   4,C   3,C   2,H  10)    105.5388         0.001659   
    152. D(C   4,C   3,C   2,H  14)    -73.2179         0.002091   
    153. D(C   4,C   3,C   2,C   1)    -13.7705         0.002714   
    154. D(H  12,C   4,C   3,C   2)   -176.6304         0.003022   
    155. D(H  12,C   4,C   0,C   1)   -169.6066         0.002753   
    156. D(C   3,C   4,C   0,H   5)   -105.7990         0.001924   
    157. D(C   3,C   4,C   0,C   1)     13.5930         0.002968   
    158. D(C   3,C   4,C   0,H   6)    134.9944         0.002595   
    159. D(C   3,C   4,C   0,H  14)     77.0890         0.002031   
    160. D(H  12,C   4,C   0,H   6)    -48.2052         0.003505   
    161. D(H  12,C   4,C   3,H  14)     93.0026         0.001964   
    162. D(H  12,C   4,C   0,H   5)     71.0014         0.001571   
    163. D(H  12,C   4,C   3,H  11)      0.0534         0.002737   
    164. D(C   0,C   4,C   3,H  14)    -90.2544         0.002435   
    165. D(C   0,C   4,C   3,H  11)    176.7964         0.003264   
    166. D(C   0,C   4,C   3,C   2)      0.1125         0.002889   
    167. D(H  14,H   6,C   0,H   5)   -164.9225         0.007936   
    168. D(H  14,H   6,C   0,C   4)    -44.0020         0.002331   
    169. D(H  14,H   6,C   0,C   1)     71.8727         0.004000   
    170. D(O  13,H   8,C   1,H   7)   -176.3133         0.000549   
    171. D(O  13,H   8,C   1,C   2)     61.0145         0.003643   
    172. D(H  14,H   8,C   1,C   0)    -55.3770         0.004177   
    173. D(H  14,H   8,C   1,H   7)   -177.9484         0.000181   
    174. D(H  14,H   8,C   1,C   2)     59.3794         0.003614   
    175. D(O  13,H   8,C   1,C   0)    -53.7419         0.004237   
    176. D(H  14,H   9,C   2,H  10)    166.3659         0.014474   
    177. D(H  14,H   9,C   2,C   1)    -70.4819         0.002949   
    178. D(H  14,H   9,C   2,C   3)     45.5366         0.002257   
    179. D(H  14,H  11,C   3,C   2)   -107.1637         0.002164   
    180. D(H  14,H  11,C   3,C   4)     76.5203         0.002473   
    181. D(H  14,H  12,C   4,C   3)    -80.0945         0.002171   
    182. D(H  14,H  12,C   4,C   0)    103.5224         0.002206   
    183. D(H  14,O  13,H   8,C   1)     -4.9634         0.001082   
    184. D(C   3,H  14,C   0,C   4)    -39.6690         0.005329   
    185. D(H  11,H  14,C   4,C   3)     24.9451         0.004113   
    186. D(C   4,H  14,C   0,H   6)   -127.6916         0.003066   
    187. D(C   4,H  14,C   0,H   5)     -9.6747         0.002591   
    188. D(H   8,H  14,C   4,H  12)    153.5544         0.002003   
    189. D(H  11,H  14,C   4,H  12)    -98.5795         0.003411   
    190. D(C   3,H  14,C   0,C   1)     76.9171         0.005656   
    191. D(C   3,H  14,H   6,C   0)     10.2987         0.001972   
    192. D(C   3,H  14,C   0,H   5)    -49.3437         0.002383   
    193. D(C   4,H  14,C   0,C   1)    116.5861         0.005306   
    194. D(O  13,H  14,C   0,H   6)     34.9771         0.001350   
    195. D(C   3,H  14,C   4,H  12)   -123.5245         0.002450   
    196. D(C   3,H  14,C   4,C   0)    111.2016         0.005301   
    197. D(O  13,H  14,C   0,H   5)    152.9940         0.000977   
    198. D(O  13,H  14,C   0,C   4)    162.6687         0.001817   
    199. D(H  11,H  14,C   3,C   4)   -122.8538         0.002448   
    200. D(O  13,H  14,C   0,C   1)    -80.7452         0.003448   
    201. D(H  12,H  14,C   3,H  11)     97.4813         0.003478   
    202. D(H  12,H  14,C   3,C   4)    -25.3725         0.004231   
    203. D(H  12,H  14,C   3,C   2)   -136.0888         0.006840   
    204. D(H   8,H  14,C   3,C   4)     85.4756         0.003802   
    205. D(H   8,H  14,C   3,C   2)    -25.2407         0.003340   
    206. D(C   4,H  14,C   3,H  11)    122.8538         0.002448   
    207. D(C   4,H  14,C   3,C   2)   -110.7163         0.005210   
    208. D(O  13,H  14,C   3,H  11)    -95.1992         0.001415   
    209. D(O  13,H  14,C   3,C   4)    141.9470         0.001592   
    210. D(O  13,H  14,C   3,C   2)     31.2307         0.004309   
    211. D(H   8,H  14,C   2,C   3)    144.9521         0.006152   
    212. D(H   8,H  14,C   2,C   1)     25.4366         0.004699   
    213. D(C   3,H  14,C   2,H  10)     -4.0291         0.002861   
    214. D(C   3,H  14,C   2,C   1)   -119.5155         0.004853   
    215. D(C   4,H  14,C   2,H  10)     36.4154         0.002720   
    216. D(C   2,H  14,O  13,H   8)    -31.5244         0.002693   
    217. D(C   1,H  14,O  13,H   8)      1.8372         0.000160   
    218. D(C   4,H  14,C   2,H   9)    165.4531         0.003091   
    219. D(C   4,H  14,C   2,C   3)     40.4444         0.005280   
    220. D(C   3,H  14,C   2,H   9)    125.0087         0.002764   
    221. D(H  12,H  14,O  13,H   8)    108.9665         0.008189   
    222. D(C   4,H  14,C   2,C   1)    -79.0711         0.005629   
    223. D(O  13,H  14,C   2,H  10)   -171.5769         0.001466   
    224. D(H   8,H  14,C   2,H   9)    -90.0393         0.004600   
    225. D(H   9,H  14,H  12,C   4)     23.0468         0.003106   
    226. D(C   2,H  14,H  12,C   4)     15.4545         0.002679   
    227. D(O  13,H  14,C   2,H   9)    -42.5392         0.001238   
    228. D(O  13,H  14,C   2,C   3)   -167.5478         0.001222   
    229. D(H  11,H  14,H  12,C   4)     63.4857         0.005560   
    230. D(O  13,H  14,C   2,C   1)     72.9367         0.003211   
    231. D(C   3,H  14,H  12,C   4)     36.7124         0.003454   
    232. D(H   8,H  14,C   3,H  11)   -151.6707         0.002033   
    233. D(H   8,H  14,C   1,C   2)   -122.9359         0.003200   
    234. D(O  13,H  14,H  12,C   4)   -136.1188         0.006958   
    235. D(H   9,H  14,H  11,C   3)     59.6796         0.007870   
    236. D(H  11,H  14,C   3,C   2)    126.4299         0.003569   
    237. D(H   8,H  14,C   1,C   0)    125.3989         0.003470   
    238. D(O  13,H  14,C   4,C   0)    -38.4850         0.004548   
    239. D(O  13,H  14,C   4,C   3)   -149.6866         0.001585   
    240. D(O  13,H  14,C   4,H  12)     86.7888         0.001488   
    241. D(C   3,H  14,C   1,H   8)    156.8214         0.002840   
    242. D(C   0,H  14,H  11,C   3)    -15.7443         0.002673   
    243. D(H   8,H  14,C   4,C   0)     28.2805         0.003350   
    244. D(H   8,H  14,C   4,C   3)    -82.9210         0.003791   
    245. D(C   3,H  14,C   1,H   7)    165.5095         0.002385   
    246. D(H  12,H  14,C   4,C   0)   -125.2739         0.003626   
    247. D(H  12,H  14,C   4,C   3)    123.5245         0.002450   
    248. D(H  11,H  14,C   4,C   0)    136.1467         0.006839   
    249. D(C   3,H  14,C   1,C   2)     33.8855         0.004107   
    250. D(C   4,H  14,H  11,C   3)    -37.6239         0.003517   
    251. D(O  13,H  14,H   6,C   0)   -152.0676         0.001297   
    252. D(C   4,H  14,H   6,C   0)     33.8047         0.003589   
    253. D(O  13,H  14,H  11,C   3)    137.9709         0.007965   
    254. D(H   8,H  14,H   6,C   0)    -68.9803         0.008391   
    255. D(H  12,H  14,H   6,C   0)     61.0058         0.007117   
    256. D(H  11,H  14,H   6,C   0)     18.9415         0.002260   
    257. D(C   3,H  14,C   1,C   0)    -77.7797         0.006254   
    258. D(C   4,H  14,C   1,H   8)   -161.3768         0.003135   
    259. D(H  11,H  14,H   9,C   2)    -62.3354         0.007250   
    260. D(C   4,H  14,C   1,H   7)   -152.6887         0.002586   
    261. D(C   4,H  14,C   1,C   2)     75.6873         0.006353   
    262. D(C   3,H  14,H   9,C   2)    -35.4268         0.003880   
    263. D(C   4,H  14,H   9,C   2)    -11.8172         0.002025   
    264. D(C   4,H  14,C   1,C   0)    -35.9779         0.004435   
    265. D(O  13,H  14,C   1,H   8)     -5.0677         0.001085   
    266. D(C   0,H  14,H   8,O  13)   -140.4683         0.002835   
    267. D(C   0,H  14,H   8,C   1)     35.1089         0.003147   
    268. D(O  13,H  14,C   1,H   7)      3.6203         0.000962   
    269. D(H  11,H  14,H   8,O  13)    155.5223         0.001888   
    270. D(H  11,H  14,H   8,C   1)    -28.9006         0.002471   
    271. D(H   6,H  14,H   8,C   1)     63.6258         0.009582   
    272. D(O  13,H  14,H   9,C   2)    146.9308         0.001509   
    273. D(O  13,H  14,C   1,C   2)   -128.0036         0.003094   
    274. D(H  12,H  14,H   8,O  13)   -150.6099         0.002106   
    275. D(H   8,H  14,H   9,C   2)     70.2489         0.008439   
    276. D(H  12,H  14,H   9,C   2)    -20.9476         0.002316   
    277. D(H  12,H  14,H   8,C   1)     24.9672         0.002478   
    278. D(C   0,H  14,H   9,C   2)     21.0405         0.002472   
    279. D(H   6,H  14,H   9,C   2)     33.4428         0.003845   
    280. D(C   1,H  14,H   9,C   2)     41.5716         0.005184   
    281. D(O  13,H  14,C   1,C   0)    120.3311         0.003417   
    282. D(C   3,H  14,H   8,O  13)    165.5542         0.000907   
    283. D(H   8,H  14,H  11,C   3)     26.5312         0.001993   
    284. D(H  12,H  14,H  11,C   3)    -65.4063         0.005687   
    285. D(C   3,H  14,H   8,C   1)    -18.8687         0.002111   
    286. D(H   6,H  14,H  11,C   3)    -22.8814         0.003156   
    287. D(C   1,H  14,H  11,C   3)     16.0085         0.001800   
    288. D(C   2,H  14,H  11,C   3)     33.9328         0.002877   
    289. D(H   8,H  14,C   0,H   5)   -150.5237         0.003589   
    290. D(C   4,H  14,H   8,O  13)   -160.3774         0.001380   
    291. D(C   4,H  14,H   8,C   1)     15.1997         0.002155   
    292. D(H   8,H  14,H  12,C   4)    -24.9095         0.001976   
    293. D(H   8,H  14,C   0,C   4)   -140.8489         0.005976   
    294. D(C   0,H  14,H  12,C   4)    -34.7609         0.002899   
    295. D(H   6,H  14,H  12,C   4)    -60.5256         0.007559   
    296. D(C   1,H  14,H  12,C   4)    -15.7901         0.001856   
    297. D(O  13,H  14,H   8,C   1)    175.5772         0.000842   
    298. D(H   9,H  14,H   6,C   0)    -33.1414         0.004064   
    299. D(C   4,H  14,O  13,H   8)     61.8332         0.002963   
    300. D(C   3,H  14,O  13,H   8)    -52.7628         0.002790   
    301. D(H   8,H  14,C   0,C   1)    -24.2628         0.004858   
    302. D(H  11,H  14,O  13,H   8)   -109.1968         0.008733   
    303. D(C   0,H  14,O  13,H   8)     36.8860         0.002938   
    304. D(H   6,H  14,O  13,H   8)     49.9431         0.004190   
    305. D(C   2,H  14,H   6,C   0)    -21.1391         0.002537   
    306. D(C   1,H  14,H   6,C   0)    -41.1221         0.005123   
    307. D(H   9,H  14,O  13,H   8)    -47.1589         0.004317   
    308. D(C   3,H  14,C   0,H   6)   -167.3606         0.002973   
    -----------------------------------------------------------------

Number of atoms                         .... 15
Number of degrees of freedom            .... 308


         *************************************************************
         *                GEOMETRY OPTIMIZATION CYCLE   1            *
         *************************************************************
---------------------------------
CARTESIAN COORDINATES (ANGSTROEM)
---------------------------------
  C      1.899865    1.393699   -0.007726
  C      0.671281    2.262984    0.342937
  C     -0.560373    1.391879    0.009241
  C      0.001727   -0.008972    0.028823
  C      1.339700   -0.007772    0.018096
  H      2.290626    1.620143   -1.006038
  H      2.723770    1.535483    0.694932
  H      0.666988    3.218133   -0.181837
  H      0.680209    2.474677    1.414387
  H     -1.377493    1.533563    0.719822
  H     -0.962916    1.616619   -0.984882
  H     -0.616360   -0.898305   -0.002406
  H      1.958390   -0.896235   -0.023890
  O      0.862772    0.204442    3.298664
  H      0.780615    0.016753    2.345036

----------------------------
CARTESIAN COORDINATES (A.U.)
----------------------------
  NO LB      ZA    FRAG     MASS         X           Y           Z
   0 C     6.0000    0    12.011    3.590225    2.633710   -0.014600
   1 C     6.0000    0    12.011    1.268537    4.276420    0.648057
   2 C     6.0000    0    12.011   -1.058952    2.630269    0.017462
   3 C     6.0000    0    12.011    0.003264   -0.016955    0.054468
   4 C     6.0000    0    12.011    2.531667   -0.014687    0.034197
   5 H     1.0000    0     1.008    4.328656    3.061626   -1.901137
   6 H     1.0000    0     1.008    5.147179    2.901642    1.313232
   7 H     1.0000    0     1.008    1.260424    6.081390   -0.343623
   8 H     1.0000    0     1.008    1.285408    4.676462    2.672803
   9 H     1.0000    0     1.008   -2.603085    2.898014    1.360267
  10 H     1.0000    0     1.008   -1.819648    3.054967   -1.861158
  11 H     1.0000    0     1.008   -1.164752   -1.697551   -0.004548
  12 H     1.0000    0     1.008    3.700820   -1.693639   -0.045146
  13 O     8.0000    0    15.999    1.630404    0.386340    6.233571
  14 H     1.0000    0     1.008    1.475148    0.031659    4.431475

--------------------------------
INTERNAL COORDINATES (ANGSTROEM)
--------------------------------
 C      0   0   0     0.000000000000     0.00000000     0.00000000
 C      1   0   0     1.545328181560     0.00000000     0.00000000
 C      2   1   0     1.545040575768   105.52192573     0.00000000
 C      3   2   1     1.509544225734   102.91897199    21.30663403
 C      4   3   2     1.338016803829   111.80296215   346.22949988
 H      1   2   3     1.095718250395   111.96385208    96.67942421
 H      1   2   3     1.092085354301   112.38104499   216.98589691
 H      2   1   3     1.089823933942   112.76028343   236.48986545
 H      2   1   3     1.092198828348   108.97398599   117.07164737
 H      3   2   1     1.092101272674   112.50555764   143.22921942
 H      3   2   1     1.095823544226   111.90926853   263.46730676
 H      4   3   2     1.083476077833   123.29274825   169.48648117
 H      5   4   3     1.083469423548   124.79085256   183.36958529
 O      9   2   1     2.955976452592   118.48851006   306.25809523
 H     14   9   2     0.975389217424    61.27264052   355.03663030

---------------------------
INTERNAL COORDINATES (A.U.)
---------------------------
 C      0   0   0     0.000000000000     0.00000000     0.00000000
 C      1   0   0     2.920247050179     0.00000000     0.00000000
 C      2   1   0     2.919703553998   105.52192573     0.00000000
 C      3   2   1     2.852625173679   102.91897199    21.30663403
 C      4   3   2     2.528485321822   111.80296215   346.22949988
 H      1   2   3     2.070607413186   111.96385208    96.67942421
 H      1   2   3     2.063742234495   112.38104499   216.98589691
 H      2   1   3     2.059468769342   112.76028343   236.48986545
 H      2   1   3     2.063956669368   108.97398599   117.07164737
 H      3   2   1     2.063772315861   112.50555764   143.22921942
 H      3   2   1     2.070806389691   111.90926853   263.46730676
 H      4   3   2     2.047473059760   123.29274825   169.48648117
 H      5   4   3     2.047460484984   124.79085256   183.36958529
 O      9   2   1     5.585985953718   118.48851006   306.25809523
 H     14   9   2     1.843218494910    61.27264052   355.03663030

---------------------
BASIS SET INFORMATION
---------------------
There are 3 groups of distinct atoms

 Group   1 Type C   : 11s6p2d1f contracted to 5s3p2d1f pattern {62111/411/11/1}
 Group   2 Type H   : 5s2p1d contracted to 3s2p1d pattern {311/11/1}
 Group   3 Type O   : 11s6p2d1f contracted to 5s3p2d1f pattern {62111/411/11/1}

Atom   0C    basis set group =>   1
Atom   1C    basis set group =>   1
Atom   2C    basis set group =>   1
Atom   3C    basis set group =>   1
Atom   4C    basis set group =>   1
Atom   5H    basis set group =>   2
Atom   6H    basis set group =>   2
Atom   7H    basis set group =>   2
Atom   8H    basis set group =>   2
Atom   9H    basis set group =>   2
Atom  10H    basis set group =>   2
Atom  11H    basis set group =>   2
Atom  12H    basis set group =>   2
Atom  13O    basis set group =>   3
Atom  14H    basis set group =>   2
---------------------------------
AUXILIARY/J BASIS SET INFORMATION
---------------------------------
There are 3 groups of distinct atoms

 Group   1 Type C   : 12s5p4d2f1g contracted to 6s4p3d1f1g pattern {711111/2111/211/2/1}
 Group   2 Type H   : 5s2p1d contracted to 3s1p1d pattern {311/2/1}
 Group   3 Type O   : 12s5p4d2f1g contracted to 6s4p3d1f1g pattern {711111/2111/211/2/1}

Atom   0C    basis set group =>   1
Atom   1C    basis set group =>   1
Atom   2C    basis set group =>   1
Atom   3C    basis set group =>   1
Atom   4C    basis set group =>   1
Atom   5H    basis set group =>   2
Atom   6H    basis set group =>   2
Atom   7H    basis set group =>   2
Atom   8H    basis set group =>   2
Atom   9H    basis set group =>   2
Atom  10H    basis set group =>   2
Atom  11H    basis set group =>   2
Atom  12H    basis set group =>   2
Atom  13O    basis set group =>   3
Atom  14H    basis set group =>   2
---------------------------------
AUXILIARY/C BASIS SET INFORMATION
---------------------------------
There are 3 groups of distinct atoms

 Group   1 Type C   : 8s6p5d3f1g contracted to 8s6p4d3f1g pattern {11111111/111111/2111/111/1}
 Group   2 Type H   : 4s3p2d1f contracted to 4s3p2d1f pattern {1111/111/11/1}
 Group   3 Type O   : 8s6p5d3f1g contracted to 8s6p4d3f1g pattern {11111111/111111/2111/111/1}

Atom   0C    basis set group =>   1
Atom   1C    basis set group =>   1
Atom   2C    basis set group =>   1
Atom   3C    basis set group =>   1
Atom   4C    basis set group =>   1
Atom   5H    basis set group =>   2
Atom   6H    basis set group =>   2
Atom   7H    basis set group =>   2
Atom   8H    basis set group =>   2
Atom   9H    basis set group =>   2
Atom  10H    basis set group =>   2
Atom  11H    basis set group =>   2
Atom  12H    basis set group =>   2
Atom  13O    basis set group =>   3
Atom  14H    basis set group =>   2


           ************************************************************
           *        Program running with 8 parallel MPI-processes     *
           *              working on a common directory               *
           ************************************************************
------------------------------------------------------------------------------
                             ORCA STARTUP CALCULATIONS
                           -- RI-GTO INTEGRALS CHOSEN --
------------------------------------------------------------------------------
------------------------------------------------------------------------------
                   ___                                                        
                  /   \      - P O W E R E D   B Y -                         
                 /     \                                                     
                 |  |  |   _    _      __       _____    __    __             
                 |  |  |  | |  | |    /  \     |  _  \  |  |  /  |          
                  \  \/   | |  | |   /    \    | | | |  |  | /  /          
                 / \  \   | |__| |  /  /\  \   | |_| |  |  |/  /          
                |  |  |   |  __  | /  /__\  \  |    /   |      \           
                |  |  |   | |  | | |   __   |  |    \   |  |\   \          
                \     /   | |  | | |  |  |  |  | |\  \  |  | \   \       
                 \___/    |_|  |_| |__|  |__|  |_| \__\ |__|  \__/        
                                                                              
                      - O R C A' S   B I G   F R I E N D -                    
                                      &                                       
                       - I N T E G R A L  F E E D E R -                       
                                                                              
 v1 FN, 2020, v2 2021, v3 2022-2024                                           
------------------------------------------------------------------------------


----------------------
SHARK INTEGRAL PACKAGE
----------------------

Number of atoms                             ...     15
Number of basis functions                   ...    312
Number of shells                            ...    120
Maximum angular momentum                    ...      3
Integral batch strategy                     ... SHARK/LIBINT Hybrid
RI-J (if used) integral strategy            ... SPLIT-RIJ (Revised 2003 algorithm where possible)
Printlevel                                  ...      1
Contraction scheme used                     ... SEGMENTED contraction
Prescreening option                         ... SCHWARTZ
   Thresh                                   ... 1.000e-12
   Tcut                                     ... 1.000e-14
   Tpresel                                  ... 1.000e-14 
Coulomb Range Separation                    ... NOT USED
Exchange Range Separation                   ... NOT USED
Multipole approximations                    ... NOT USED
Finite Nucleus Model                        ... NOT USED
CABS basis                                  ... NOT available
Auxiliary Coulomb fitting basis             ... AVAILABLE
   # of basis functions in Aux-J            ...    393
   # of shells in Aux-J                     ...    135
   Maximum angular momentum in Aux-J        ...      4
Auxiliary J/K fitting basis                 ... NOT available
Auxiliary Correlation fitting basis         ... AVAILABLE
   # of basis functions in Aux-C            ...    726
   # of shells in Aux-C                     ...    222
   Maximum angular momentum in Aux-C        ...      4
Auxiliary 'external' fitting basis          ... NOT available

Checking pre-screening integrals            ... done (  0.0 sec) Dimension = 120
   => SHARK Basis and OBASIS are compatible. Storing Pre-screening
Shell pair information
Shell pair cut-off parameter TPreSel        ...   1.0e-14
Total number of shell pairs                 ...      7260
Shell pairs after pre-screening             ...      6948
Total number of primitive shell pairs       ...     18687
Primitive shell pairs kept                  ...     14567
          la=0 lb=0:   1546 shell pairs
          la=1 lb=0:   1960 shell pairs
          la=1 lb=1:    648 shell pairs
          la=2 lb=0:   1140 shell pairs
          la=2 lb=1:    740 shell pairs
          la=2 lb=2:    228 shell pairs
          la=3 lb=0:    329 shell pairs
          la=3 lb=1:    213 shell pairs
          la=3 lb=2:    123 shell pairs
          la=3 lb=3:     21 shell pairs

Checking whether 4 symmetric matrices of dimension 312 fit in memory
:Max Core in MB      =   6000.00
 MB in use           =     12.01
 MB left             =   5987.99
 MB needed           =      1.49
 Data fit in memory  = YES
Calculating RI/J V-Matrix + Cholesky decomp.... done (  0.0 sec)
Calculating RI/C V-Matrix + Cholesky decomp.... done (  0.1 sec)
Calculating Nuclear repulsion               ... done (  0.0 sec) ENN=    227.497803472804 Eh

Diagonalization of the overlap matrix:
Smallest eigenvalue                        ... 7.629e-05
Time for diagonalization                   ...    0.022 sec
Threshold for overlap eigenvalues          ... 1.000e-07
Number of eigenvalues below threshold      ... 0
Time for construction of square roots      ...    0.020 sec
Total time needed                          ...    0.053 sec

-------------------
DFT GRID GENERATION
-------------------

General Integration Accuracy     IntAcc      ... 4.959
Radial Grid Type                 RadialGrid  ... OptM3 with GC (2021)
Angular Grid (max. ang.)         AngularGrid ... 6 (Lebedev-590)
Angular grid pruning method      GridPruning ... 4 (adaptive)
Weight generation scheme         WeightScheme... mBecke (2022)
Basis function cutoff            BFCut       ... 1.0000e-12
Integration weight cutoff        WCut        ... 1.0000e-14
Partially contracted basis set               ... off
Rotationally invariant grid construction     ... off
Angular grids for H and He will be reduced by one unit

Total number of grid points                  ...   164188
Total number of batches                      ...     2574
Average number of points per batch           ...       63
Average number of grid points per atom       ...    10946

--------------------
COSX GRID GENERATION
--------------------

GRIDX 1
-------
General Integration Accuracy     IntAcc      ... 4.020
Radial Grid Type                 RadialGrid  ... OptM3 with GC (2021)
Angular Grid (max. ang.)         AngularGrid ... 2 (Lebedev-110)
Angular grid pruning method      GridPruning ... 4 (adaptive)
Weight generation scheme         WeightScheme... mBecke (2022)
Basis function cutoff            BFCut       ... 1.0000e-12
Integration weight cutoff        WCut        ... 1.0000e-14
Partially contracted basis set               ... on
Rotationally invariant grid construction     ... off
Angular grids for H and He will be reduced by one unit

Total number of grid points                  ...    17679
Total number of batches                      ...      147
Average number of points per batch           ...      120
Average number of grid points per atom       ...     1179
UseSFitting                                  ... on

GRIDX 2
-------
General Integration Accuracy     IntAcc      ... 4.338
Radial Grid Type                 RadialGrid  ... OptM3 with GC (2021)
Angular Grid (max. ang.)         AngularGrid ... 3 (Lebedev-194)
Angular grid pruning method      GridPruning ... 4 (adaptive)
Weight generation scheme         WeightScheme... mBecke (2022)
Basis function cutoff            BFCut       ... 1.0000e-12
Integration weight cutoff        WCut        ... 1.0000e-14
Partially contracted basis set               ... on
Rotationally invariant grid construction     ... off
Angular grids for H and He will be reduced by one unit

Total number of grid points                  ...    38659
Total number of batches                      ...      310
Average number of points per batch           ...      124
Average number of grid points per atom       ...     2577
UseSFitting                                  ... on

GRIDX 3
-------
General Integration Accuracy     IntAcc      ... 4.871
Radial Grid Type                 RadialGrid  ... OptM3 with GC (2021)
Angular Grid (max. ang.)         AngularGrid ... 4 (Lebedev-302)
Angular grid pruning method      GridPruning ... 4 (adaptive)
Weight generation scheme         WeightScheme... mBecke (2022)
Basis function cutoff            BFCut       ... 1.0000e-12
Integration weight cutoff        WCut        ... 1.0000e-14
Partially contracted basis set               ... on
Rotationally invariant grid construction     ... off
Angular grids for H and He will be reduced by one unit

Total number of grid points                  ...    75746
Total number of batches                      ...      600
Average number of points per batch           ...      126
Average number of grid points per atom       ...     5050
UseSFitting                                  ... on
Grids setup in   4.3 sec
Initializing property integral containers    ... done (  0.0 sec)

SHARK setup successfully completed in   4.8 seconds

Maximum memory used throughout the entire STARTUP-calculation: 42.6 MB


           ************************************************************
           *        Program running with 8 parallel MPI-processes     *
           *              working on a common directory               *
           ************************************************************
-------------------------------------------------------------------------------
                                 ORCA GUESS
                   Start orbitals & Density for SCF / CASSCF
-------------------------------------------------------------------------------

------------
SCF SETTINGS
------------
Hamiltonian:
 Density Functional     Method          .... DFT(GTOs)
 Exchange Functional    Exchange        .... PBE
   PBE kappa parameter   XKappa         ....  0.804000
   PBE mue parameter    XMuePBE         ....  0.219520
 Correlation Functional Correlation     .... P86
 LDA part of GGA corr.  LDAOpt          .... VWN-5
 Gradients option       PostSCFGGA      .... off
 Hybrid DFT is turned on
   Fraction HF Exchange ScalHFX         ....  0.690000
   Scaling of DF-GGA-X  ScalDFX         ....  0.310000
   Scaling of DF-GGA-C  ScalDFC         ....  0.422400
   Scaling of DF-LDA-C  ScalLDAC        ....  0.422400
   Perturbative correction              ....  1.000000
 RI-approximation to the Coulomb term is turned on
   Number of AuxJ basis functions       .... 393
   RIJ-COSX (HFX calculated with COS-X)).... on


General Settings:
 Integral files         IntName         .... opt
 Hartree-Fock type      HFTyp           .... UHF
 Total Charge           Charge          ....    0
 Multiplicity           Mult            ....    2
 Number of Electrons    NEL             ....   47
 Basis Dimension        Dim             ....  312
 Nuclear Repulsion      ENuc            ....    227.4978034728 Eh

Convergence Acceleration:
 AO-DIIS                CNVDIIS         .... on
   Start iteration      DIISMaxIt       ....    12
   Startup error        DIISStart       ....  0.200000
   # of expansion vecs  DIISMaxEq       ....     5
   Bias factor          DIISBfac        ....   1.050
   Max. coefficient     DIISMaxC        ....  10.000
 MO-DIIS                CNVKDIIS        .... off
 Trust-Rad. Augm. Hess. CNVTRAH         .... auto
   Auto Start mean grad. ratio tolernc. ....  1.125000
   Auto Start start iteration           ....    50
   Auto Start num. interpolation iter.  ....    10
   Max. Number of Micro iterations      ....    24
   Max. Number of Macro iterations      .... Maxiter - #DIIS iter
   Number of Davidson start vectors     ....     2
   Converg. threshold    (grad. norm)   ....   2.000e-06
   Grad. Scal. Fac. for Micro threshold ....   0.100
   Minimum threshold for Micro iter.    ....   1.000e-02
   NR start threshold (gradient norm)   ....   1.000e-04
   Initial trust radius                 ....   0.400
   Minimum AH scaling param. (alpha)    ....   1.000
   Maximum AH scaling param. (alpha)    .... 1000.000
   Quad. conv. algorithm                .... NR
   White noise on init. David. guess    .... on
   Maximum white noise                  ....   0.010
   Pseudo random numbers                .... off
   Inactive MOs                         .... canonical
   Orbital update algorithm             .... Taylor
   Preconditioner                       .... Diag
   Full preconditioner red. dimension   ....   250
 SOSCF                 CNVSOSCF           .... on
   Start iteration     SOSCFMaxIt         ....   150
   Startup grad/error  SOSCFStart         ....  0.003300
   Hessian update      SOSCFHessUp        .... L-BFGS
   Autom. constraints  SOSCFAutoConstrain .... off
 Level Shifting         CNVShift        .... on
   Level shift para.    LevelShift      ....    0.2500
   Turn off err/grad.   ShiftErr        ....    0.0010
 Zerner damping         CNVZerner       .... off
 Static damping         CNVDamp         .... on
   Fraction old density DampFac         ....    0.7000
   Max. Damping (<1)    DampMax         ....    0.9800
   Min. Damping (>=0)   DampMin         ....    0.0000
   Turn off err/grad.   DampErr         ....    0.1000

SCF Procedure:
 Maximum # iterations   MaxIter         ....   125
 SCF integral mode      SCFMode         .... Direct
   Integral package                     .... SHARK and LIBINT hybrid scheme
 Reset frequency        DirectResetFreq ....    20
 Integral Threshold     Thresh          ....  1.000e-12 Eh
 Primitive CutOff       TCut            ....  1.000e-14 Eh

Convergence Tolerance:
 Convergence Check Mode ConvCheckMode   .... Total+1el-Energy
 Convergence forced     ConvForced      .... 0
 Energy Change          TolE            ....  1.000e-09 Eh
 1-El. energy change                    ....  1.000e-06 Eh
 Orbital Gradient       TolG            ....  2.000e-06
 Orbital Rotation angle TolX            ....  2.000e-06
 DIIS Error             TolErr          ....  1.000e-08

------------------------------
INITIAL GUESS: MODEL POTENTIAL
------------------------------
Loading Hartree-Fock densities                     ... done
Calculating cut-offs                               ... done
Initializing the effective Hamiltonian             ... done
Setting up the integral package (SHARK)            ... done
Starting the Coulomb interaction                   ... done (   0.1 sec)
Making the grid                                    ... done (   0.2 sec)
Mapping shells                                     ... done
Starting the XC term evaluation                    ... done (   0.1 sec)
  promolecular density results
     # of electrons  =     46.992510468
     EX              =    -36.291734004
     EC              =      0.026375407
     EX+EC           =    -36.265358596
Transforming the Hamiltonian                       ... done (   0.0 sec)
Diagonalizing the Hamiltonian                      ... done (   0.0 sec)
Back transforming the eigenvectors                 ... done (   0.0 sec)
Now organizing SCF variables                       ... done
                      ------------------
                      INITIAL GUESS DONE (   0.4 sec)
                      ------------------
             **** ENERGY FILE WAS UPDATED (opt.en.tmp) ****
Finished Guess after   2.6 sec
Maximum memory used throughout the entire GUESS-calculation: 18.0 MB


           ************************************************************
           *        Program running with 8 parallel MPI-processes     *
           *              working on a common directory               *
           ************************************************************

-------------------------------------------------------------------------------------------
                                      ORCA LEAN-SCF
                              memory conserving SCF solver
-------------------------------------------------------------------------------------------

----------------------------------------D-I-I-S--------------------------------------------
Iteration    Energy (Eh)           Delta-E    RMSDP     MaxDP     DIISErr   Damp  Time(sec)
-------------------------------------------------------------------------------------------
               ***  Starting incremental Fock matrix formation  ***
    1    -269.6439411685846608     0.00e+00  4.66e-03  1.02e-01  2.39e-01  0.700   7.0
Warning: op=1 Small HOMO/LUMO gap (  -0.001) - skipping pre-diagonalization
         Will do a full diagonalization
    2    -269.7940801280873870    -1.50e-01  3.04e-03  6.15e-02  1.05e-01  0.700   4.7
                               ***Turning on AO-DIIS***
    3    -269.8617880205132451    -6.77e-02  9.76e-04  2.53e-02  3.29e-02  0.700   3.4
    4    -269.9075999429450690    -4.58e-02  3.95e-03  8.46e-02  2.35e-02  0.000   4.4
    5    -270.0574354699201081    -1.50e-01  2.16e-03  3.61e-02  4.64e-02  0.000   3.7
    6    -270.0825820603630518    -2.51e-02  1.79e-03  3.27e-02  3.21e-02  0.000   3.9
    7    -270.1011031821337269    -1.85e-02  6.38e-04  8.76e-03  2.33e-02  0.000   4.0
    8    -270.1074861940281835    -6.38e-03  7.81e-04  1.30e-02  1.42e-02  0.000   3.7
    9    -270.1115802948475562    -4.09e-03  2.58e-04  4.15e-03  1.00e-02  0.000   4.0
   10    -270.1127550529401447    -1.17e-03  1.93e-04  4.20e-03  7.71e-03  0.000   3.4
   11    -270.1133801302279380    -6.25e-04  1.29e-04  3.32e-03  5.27e-03  0.000   3.7
                              *** Initializing SOSCF ***
---------------------------------------S-O-S-C-F--------------------------------------
Iteration    Energy (Eh)           Delta-E    RMSDP     MaxDP     MaxGrad    Time(sec)
--------------------------------------------------------------------------------------
   12    -270.1136506096486301    -2.70e-04  7.96e-05  2.40e-03  3.22e-03     3.4
               *** Restarting incremental Fock matrix formation ***
   13    -270.1137497575270459    -9.91e-05  3.65e-05  7.21e-04  1.92e-03     6.7
   14    -270.1137683379260466    -1.86e-05  5.37e-05  1.28e-03  1.34e-03     5.6
   15    -270.1137844236075694    -1.61e-05  1.45e-05  4.32e-04  3.73e-04     5.5
   16    -270.1137868753596649    -2.45e-06  1.19e-05  2.44e-04  2.44e-04     5.1
   17    -270.1137877267885870    -8.51e-07  3.54e-06  4.79e-05  6.13e-05     5.0
   18    -270.1137877830707339    -5.63e-08  1.58e-06  2.51e-05  2.71e-05     5.4
   19    -270.1137877997967394    -1.67e-08  2.17e-06  4.60e-05  2.37e-05     5.0
   20    -270.1137878200602813    -2.03e-08  3.21e-06  6.98e-05  1.77e-05     4.4
   21    -270.1137878397197483    -1.97e-08  1.61e-06  3.39e-05  6.56e-06     5.2
   22    -270.1137878456237331    -5.90e-09  8.17e-07  1.36e-05  4.82e-06     4.9
   23    -270.1137878472980560    -1.67e-09  2.45e-07  2.77e-06  3.68e-06     4.1
   24    -270.1137878475976208    -3.00e-10  1.62e-07  3.57e-06  3.70e-06     4.7
                 **** Energy Check signals convergence ****

               *****************************************************
               *                     SUCCESS                       *
               *           SCF CONVERGED AFTER  24 CYCLES          *
               *****************************************************

Recomputing exchange energy using gridx3       ... done (    9.173 sec)
Old exchange energy                            :    -25.789501073 Eh
New exchange energy                            :    -25.789495154 Eh
Exchange energy change after final integration :      0.000005919 Eh
Total energy after final integration           :   -270.113781929 Eh
             **** ENERGY FILE WAS UPDATED (opt.en.tmp) ****

----------------
TOTAL SCF ENERGY
----------------

Total Energy       :       -270.11378192895904 Eh           -7350.16968 eV

Components:
Nuclear Repulsion  :        227.49780347280358 Eh            6190.52995 eV
Electronic Energy  :       -497.61159132071782 Eh          -13540.69980 eV
One Electron Energy:       -816.33949714551045 Eh          -22213.72704 eV
Two Electron Energy:        318.72790582479263 Eh            8673.02725 eV

Virial components:
Potential Energy   :       -539.51694827904828 Eh          -14681.00253 eV
Kinetic Energy     :        269.40316635008924 Eh            7330.83285 eV
Virial Ratio       :          2.00263774026303

DFT components:
N(Alpha)           :       23.999994971140 electrons
N(Beta)            :       22.999995264311 electrons
N(Total)           :       46.999990235451 electrons
E(X)               :      -11.522873420921 Eh       
E(C)               :       -0.707504069057 Eh       
E(XC)              :      -12.230377489978 Eh       

---------------
SCF CONVERGENCE
---------------

  Last Energy change         ...    2.9956e-10  Tolerance :   1.0000e-09
  Last MAX-Density change    ...    3.5733e-06  Tolerance :   1.0000e-08
  Last RMS-Density change    ...    1.6203e-07  Tolerance :   1.0000e-09
  Last DIIS Error            ...    3.2168e-03  Tolerance :   1.0000e-08
  Last Orbital Gradient      ...    3.6977e-06  Tolerance :   2.0000e-06
  Last Orbital Rotation      ...    1.5930e-05  Tolerance :   2.0000e-06


----------------------
UHF SPIN CONTAMINATION
----------------------

Warning: in a DFT calculation there is little theoretical justification to 
         calculate <S**2> as in Hartree-Fock theory. We will do it anyways
         but you should keep in mind that the values have only limited relevance

Expectation value of <S**2>     :     0.754590
Ideal value S*(S+1) for S=0.5   :     0.750000
Deviation                       :     0.004590

----------------
ORBITAL ENERGIES
----------------
                 SPIN UP ORBITALS
  NO   OCC          E(Eh)            E(eV) 
   0   1.0000     -20.055730      -545.7442 
   1   1.0000     -10.825728      -294.5830 
   2   1.0000     -10.824306      -294.5443 
   3   1.0000     -10.819508      -294.4138 
   4   1.0000     -10.819377      -294.4102 
   5   1.0000     -10.815857      -294.3144 
   6   1.0000      -1.227061       -33.3900 
   7   1.0000      -1.035859       -28.1871 
   8   1.0000      -0.880934       -23.9714 
   9   1.0000      -0.874174       -23.7875 
  10   1.0000      -0.718093       -19.5403 
  11   1.0000      -0.664372       -18.0785 
  12   1.0000      -0.621583       -16.9141 
  13   1.0000      -0.596129       -16.2215 
  14   1.0000      -0.577194       -15.7063 
  15   1.0000      -0.547899       -14.9091 
  16   1.0000      -0.505966       -13.7680 
  17   1.0000      -0.488228       -13.2854 
  18   1.0000      -0.459460       -12.5025 
  19   1.0000      -0.449902       -12.2425 
  20   1.0000      -0.448340       -12.1999 
  21   1.0000      -0.442185       -12.0325 
  22   1.0000      -0.435342       -11.8463 
  23   1.0000      -0.323742        -8.8095 
  24   0.0000       0.085443         2.3250 
  25   0.0000       0.093879         2.5546 
  26   0.0000       0.129309         3.5187 
  27   0.0000       0.133412         3.6303 
  28   0.0000       0.138010         3.7554 
  29   0.0000       0.155960         4.2439 
  30   0.0000       0.165625         4.5069 
  31   0.0000       0.171971         4.6796 
  32   0.0000       0.184150         5.0110 
  33   0.0000       0.211448         5.7538 
  34   0.0000       0.237220         6.4551 

                 SPIN DOWN ORBITALS
  NO   OCC          E(Eh)            E(eV) 
   0   1.0000     -20.021659      -544.8170 
   1   1.0000     -10.825772      -294.5842 
   2   1.0000     -10.824340      -294.5453 
   3   1.0000     -10.819507      -294.4137 
   4   1.0000     -10.819377      -294.4102 
   5   1.0000     -10.815814      -294.3133 
   6   1.0000      -1.103584       -30.0301 
   7   1.0000      -1.035678       -28.1822 
   8   1.0000      -0.880919       -23.9710 
   9   1.0000      -0.874192       -23.7880 
  10   1.0000      -0.717980       -19.5372 
  11   1.0000      -0.664419       -18.0798 
  12   1.0000      -0.621584       -16.9141 
  13   1.0000      -0.587563       -15.9884 
  14   1.0000      -0.549239       -14.9456 
  15   1.0000      -0.505891       -13.7660 
  16   1.0000      -0.488229       -13.2854 
  17   1.0000      -0.449916       -12.2428 
  18   1.0000      -0.448349       -12.2002 
  19   1.0000      -0.442211       -12.0332 
  20   1.0000      -0.435346       -11.8464 
  21   1.0000      -0.421265       -11.4632 
  22   1.0000      -0.323234        -8.7957 
  23   0.0000       0.008358         0.2274 
  24   0.0000       0.085396         2.3237 
  25   0.0000       0.096585         2.6282 
  26   0.0000       0.130698         3.5565 
  27   0.0000       0.133544         3.6339 
  28   0.0000       0.141162         3.8412 
  29   0.0000       0.156208         4.2506 
  30   0.0000       0.165632         4.5071 
  31   0.0000       0.175822         4.7844 
  32   0.0000       0.184289         5.0148 
  33   0.0000       0.219273         5.9667 
*Only the first 10 virtual orbitals were printed.

                    ********************************
                    * MULLIKEN POPULATION ANALYSIS *
                    ********************************

--------------------------------------------
MULLIKEN ATOMIC CHARGES AND SPIN POPULATIONS
--------------------------------------------
   0 C :   -0.075249   -0.000897
   1 C :   -0.172898    0.004669
   2 C :   -0.067919   -0.001662
   3 C :   -0.193798   -0.001988
   4 C :   -0.196588   -0.000255
   5 H :    0.073077   -0.000046
   6 H :    0.083342   -0.000262
   7 H :    0.081926    0.000139
   8 H :    0.080228    0.000233
   9 H :    0.081309   -0.000129
  10 H :    0.072420   -0.000156
  11 H :    0.120640    0.000099
  12 H :    0.123337    0.000029
  13 O :   -0.271459    1.027736
  14 H :    0.261633   -0.027510
Sum of atomic charges         :   -0.0000000
Sum of atomic spin populations:    1.0000000

-----------------------------------------------------
MULLIKEN REDUCED ORBITAL CHARGES AND SPIN POPULATIONS
-----------------------------------------------------
CHARGE
  0 C s       :     3.091440  s :     3.091440
      pz      :     1.030695  p :     2.868189
      px      :     0.964817
      py      :     0.872676
      dz2     :     0.017180  d :     0.109596
      dxz     :     0.030127
      dyz     :     0.016243
      dx2y2   :     0.024946
      dxy     :     0.021100
      f0      :     0.000700  f :     0.006024
      f+1     :     0.000784
      f-1     :     0.000550
      f+2     :     0.000463
      f-2     :     0.000798
      f+3     :     0.001424
      f-3     :     0.001303

  1 C s       :     3.155940  s :     3.155940
      pz      :     1.049165  p :     2.909290
      px      :     0.874705
      py      :     0.985420
      dz2     :     0.023290  d :     0.101631
      dxz     :     0.015074
      dyz     :     0.016183
      dx2y2   :     0.026933
      dxy     :     0.020152
      f0      :     0.000921  f :     0.006037
      f+1     :     0.000568
      f-1     :     0.000430
      f+2     :     0.000562
      f-2     :     0.000781
      f+3     :     0.001360
      f-3     :     0.001415

  2 C s       :     3.085805  s :     3.085805
      pz      :     1.028338  p :     2.866091
      px      :     0.964572
      py      :     0.873182
      dz2     :     0.017061  d :     0.109995
      dxz     :     0.030686
      dyz     :     0.016168
      dx2y2   :     0.024911
      dxy     :     0.021170
      f0      :     0.000692  f :     0.006028
      f+1     :     0.000797
      f-1     :     0.000545
      f+2     :     0.000454
      f-2     :     0.000801
      f+3     :     0.001429
      f-3     :     0.001310

  3 C s       :     3.186175  s :     3.186175
      pz      :     0.955062  p :     2.888704
      px      :     0.957686
      py      :     0.975957
      dz2     :     0.004138  d :     0.111256
      dxz     :     0.024388
      dyz     :     0.008004
      dx2y2   :     0.030016
      dxy     :     0.044711
      f0      :     0.001149  f :     0.007662
      f+1     :     0.000554
      f-1     :     0.000829
      f+2     :     0.001047
      f-2     :     0.000290
      f+3     :     0.001444
      f-3     :     0.002350

  4 C s       :     3.183853  s :     3.183853
      pz      :     0.958075  p :     2.893263
      px      :     0.959264
      py      :     0.975924
      dz2     :     0.004411  d :     0.111823
      dxz     :     0.024259
      dyz     :     0.008013
      dx2y2   :     0.030141
      dxy     :     0.044998
      f0      :     0.001141  f :     0.007649
      f+1     :     0.000558
      f-1     :     0.000827
      f+2     :     0.001046
      f-2     :     0.000286
      f+3     :     0.001442
      f-3     :     0.002349

  5 H s       :     0.886323  s :     0.886323
      pz      :     0.018214  p :     0.038522
      px      :     0.011249
      py      :     0.009059
      dz2     :     0.000600  d :     0.002078
      dxz     :     0.000620
      dyz     :     0.000579
      dx2y2   :     0.000132
      dxy     :     0.000147

  6 H s       :     0.875446  s :     0.875446
      pz      :     0.013200  p :     0.039147
      px      :     0.016757
      py      :     0.009190
      dz2     :     0.000562  d :     0.002065
      dxz     :     0.000404
      dyz     :     0.000275
      dx2y2   :     0.000338
      dxy     :     0.000486

  7 H s       :     0.877223  s :     0.877223
      pz      :     0.011123  p :     0.038782
      px      :     0.009523
      py      :     0.018136
      dz2     :     0.000435  d :     0.002069
      dxz     :     0.000143
      dyz     :     0.000460
      dx2y2   :     0.000344
      dxy     :     0.000687

  8 H s       :     0.878256  s :     0.878256
      pz      :     0.020317  p :     0.039403
      px      :     0.008875
      py      :     0.010211
      dz2     :     0.000545  d :     0.002113
      dxz     :     0.000730
      dyz     :     0.000737
      dx2y2   :     0.000037
      dxy     :     0.000063

  9 H s       :     0.877318  s :     0.877318
      pz      :     0.013333  p :     0.039303
      px      :     0.016728
      py      :     0.009242
      dz2     :     0.000569  d :     0.002070
      dxz     :     0.000403
      dyz     :     0.000283
      dx2y2   :     0.000334
      dxy     :     0.000482

 10 H s       :     0.886804  s :     0.886804
      pz      :     0.018205  p :     0.038697
      px      :     0.011424
      py      :     0.009067
      dz2     :     0.000601  d :     0.002079
      dxz     :     0.000614
      dyz     :     0.000575
      dx2y2   :     0.000136
      dxy     :     0.000153

 11 H s       :     0.840284  s :     0.840284
      pz      :     0.010000  p :     0.037151
      px      :     0.010554
      py      :     0.016597
      dz2     :     0.000131  d :     0.001924
      dxz     :     0.000265
      dyz     :     0.000313
      dx2y2   :     0.000778
      dxy     :     0.000438

 12 H s       :     0.837645  s :     0.837645
      pz      :     0.010025  p :     0.037097
      px      :     0.010549
      py      :     0.016522
      dz2     :     0.000131  d :     0.001921
      dxz     :     0.000266
      dyz     :     0.000313
      dx2y2   :     0.000778
      dxy     :     0.000435

 13 O s       :     3.895577  s :     3.895577
      pz      :     1.408318  p :     4.364241
      px      :     1.944776
      py      :     1.011147
      dz2     :     0.007479  d :     0.011260
      dxz     :     0.001439
      dyz     :     0.001624
      dx2y2   :     0.000646
      dxy     :     0.000073
      f0      :     0.000167  f :     0.000381
      f+1     :     0.000060
      f-1     :     0.000014
      f+2     :     0.000035
      f-2     :     0.000007
      f+3     :     0.000049
      f-3     :     0.000049

 14 H s       :     0.646895  s :     0.646895
      pz      :     0.038475  p :     0.083841
      px      :     0.032090
      py      :     0.013276
      dz2     :     0.002988  d :     0.007631
      dxz     :     0.003018
      dyz     :     0.001414
      dx2y2   :     0.000090
      dxy     :     0.000121


SPIN
  0 C s       :    -0.000548  s :    -0.000548
      pz      :    -0.000194  p :    -0.000329
      px      :    -0.000179
      py      :     0.000044
      dz2     :    -0.000024  d :    -0.000020
      dxz     :    -0.000005
      dyz     :     0.000006
      dx2y2   :     0.000001
      dxy     :     0.000002
      f0      :     0.000000  f :     0.000001
      f+1     :     0.000000
      f-1     :     0.000000
      f+2     :     0.000000
      f-2     :     0.000000
      f+3     :     0.000000
      f-3     :     0.000000

  1 C s       :     0.001395  s :     0.001395
      pz      :     0.001585  p :     0.003314
      px      :     0.000058
      py      :     0.001671
      dz2     :    -0.000018  d :    -0.000040
      dxz     :     0.000000
      dyz     :    -0.000018
      dx2y2   :    -0.000004
      dxy     :    -0.000001
      f0      :     0.000001  f :     0.000001
      f+1     :    -0.000001
      f-1     :    -0.000000
      f+2     :     0.000000
      f-2     :     0.000000
      f+3     :     0.000000
      f-3     :     0.000000

  2 C s       :    -0.000849  s :    -0.000849
      pz      :    -0.000567  p :    -0.000782
      px      :    -0.000284
      py      :     0.000068
      dz2     :    -0.000005  d :    -0.000029
      dxz     :    -0.000006
      dyz     :    -0.000021
      dx2y2   :    -0.000001
      dxy     :     0.000004
      f0      :    -0.000000  f :    -0.000001
      f+1     :    -0.000000
      f-1     :     0.000000
      f+2     :    -0.000001
      f-2     :    -0.000000
      f+3     :    -0.000000
      f-3     :    -0.000000

  3 C s       :    -0.000412  s :    -0.000412
      pz      :    -0.001533  p :    -0.001539
      px      :    -0.000011
      py      :     0.000005
      dz2     :    -0.000007  d :    -0.000035
      dxz     :    -0.000015
      dyz     :    -0.000004
      dx2y2   :    -0.000007
      dxy     :    -0.000001
      f0      :    -0.000003  f :    -0.000002
      f+1     :     0.000001
      f-1     :     0.000002
      f+2     :    -0.000001
      f-2     :    -0.000000
      f+3     :    -0.000001
      f-3     :    -0.000000

  4 C s       :    -0.000246  s :    -0.000246
      pz      :    -0.000229  p :     0.000059
      px      :     0.000279
      py      :     0.000009
      dz2     :    -0.000019  d :    -0.000060
      dxz     :    -0.000043
      dyz     :    -0.000005
[...]
     40      -0.000057   0.000005  -0.000055  -0.000004   0.000077  -0.000018
     41      -0.000137   0.000007  -0.000191  -0.000012   0.000339  -0.000207
     42      -0.000029  -0.000340   0.000166  -0.001628  -0.000102   0.000092
     43       0.000924  -0.000074   0.000981   0.000056  -0.001071  -0.000209
     44       0.001564  -0.000063   0.002523   0.000170  -0.004206   0.002844
                 42         43         44    
      0       0.001767  -0.002899  -0.000154
      1       0.001362  -0.002177  -0.000174
      2       0.000864  -0.000358  -0.000167
      3      -0.000407  -0.000005  -0.000007
      4       0.000004  -0.001740  -0.000235
      5       0.000013  -0.000501  -0.000412
      6       0.001741   0.002905   0.000144
      7      -0.001353  -0.002149  -0.000165
      8      -0.000933  -0.000509  -0.000184
      9       0.033280   0.042415   0.001066
     10       0.049340   0.049938  -0.000023
     11       0.002079   0.001847  -0.000079
     12       0.033414  -0.042876  -0.001085
     13      -0.048831   0.049763  -0.000020
     14      -0.003618   0.003819  -0.000036
     15      -0.000206   0.003893   0.000478
     16      -0.001885   0.004052   0.001583
     17       0.001786  -0.009703   0.000147
     18      -0.014628   0.020733   0.002550
     19      -0.004540   0.006177   0.001424
     20      -0.012498   0.015498   0.001304
     21       0.000534  -0.000091   0.000002
     22      -0.000092   0.008755   0.000862
     23       0.000038  -0.004075   0.000947
     24       0.000417   0.000183   0.000109
     25      -0.000026   0.002072   0.002014
     26      -0.000094   0.008154   0.004122
     27      -0.013949  -0.020212  -0.002440
     28       0.004411   0.006019   0.001389
     29       0.013111   0.016608   0.001210
     30      -0.000355  -0.004314  -0.000543
     31       0.001892   0.003969   0.001545
     32      -0.001878  -0.009417   0.000224
     33      -0.401065  -0.402619  -0.000603
     34      -0.580202  -0.574426  -0.000050
     35      -0.025067  -0.024559   0.000160
     36      -0.403030   0.407977   0.000742
     37       0.574185  -0.573144  -0.000220
     38       0.043572  -0.043447   0.000012
     39      -0.000020   0.000001   0.001214
     40       0.000004  -0.000073   0.022022
     41       0.000014  -0.000099   0.059001
     42       0.000939  -0.000090  -0.019125
     43      -0.000025   0.001962  -0.350722
     44      -0.000182   0.001283  -0.934136


-----------
IR SPECTRUM
-----------

 Mode   freq       eps      Int      T**2         TX        TY        TZ
       cm**-1   L/(mol*cm) km/mol    a.u.
----------------------------------------------------------------------------
  6:     42.06   0.000362    1.83  0.002686  ( 0.047820 -0.015851  0.012149)
  7:     51.33   0.000857    4.33  0.005210  ( 0.008301  0.055823 -0.045004)
  8:    125.09   0.000032    0.16  0.000081  (-0.000445  0.001163 -0.008901)
  9:    170.23   0.000104    0.53  0.000191  (-0.000821 -0.010083 -0.009397)
 10:    334.97   0.026218  132.49  0.024425  (-0.007824 -0.128148  0.089118)
 11:    389.75   0.007777   39.30  0.006227  (-0.077718  0.011733 -0.007008)
 12:    397.30   0.000803    4.06  0.000630  (-0.022968  0.008786 -0.005068)
 13:    609.22   0.002020   10.21  0.001035  ( 0.000693 -0.005212  0.031734)
 14:    729.79   0.008988   45.42  0.003843  ( 0.001461 -0.006578  0.061627)
 15:    782.44   0.000045    0.23  0.000018  (-0.004243 -0.000028  0.000184)
 16:    833.47   0.000376    1.90  0.000141  (-0.000333  0.000237 -0.011850)
 17:    895.98   0.000574    2.90  0.000200  (-0.014142  0.000059  0.000127)
 18:    919.03   0.000115    0.58  0.000039  ( 0.000194  0.003300  0.005296)
 19:    925.78   0.001692    8.55  0.000570  (-0.023872 -0.000101  0.000650)
 20:    983.27   0.000156    0.79  0.000049  (-0.006679  0.002140  0.000424)
 21:    983.66   0.000250    1.26  0.000079  ( 0.001850  0.008493  0.001904)
 22:   1049.24   0.000385    1.95  0.000115  ( 0.010703 -0.000010 -0.000122)
 23:   1079.72   0.001932    9.76  0.000558  (-0.000552  0.000282 -0.023620)
 24:   1132.61   0.000108    0.54  0.000030  ( 0.000150 -0.000068  0.005442)
 25:   1159.18   0.000426    2.15  0.000115  (-0.010703 -0.000069  0.000114)
 26:   1232.62   0.000001    0.01  0.000000  (-0.000578 -0.000044  0.000033)
 27:   1245.10   0.000389    1.96  0.000097  (-0.000159 -0.003581 -0.009195)
 28:   1317.43   0.000364    1.84  0.000086  ( 0.009285  0.000077 -0.000172)
 29:   1331.88   0.000063    0.32  0.000015  (-0.003851 -0.000174 -0.000051)
 30:   1339.13   0.000290    1.46  0.000067  (-0.000066  0.008207  0.000361)
 31:   1392.26   0.000468    2.36  0.000105  (-0.010238 -0.000073  0.000265)
 32:   1494.64   0.000365    1.84  0.000076  (-0.000177  0.001216  0.008643)
 33:   1498.13   0.000689    3.48  0.000144  ( 0.011982  0.000072  0.000017)
 34:   1519.93   0.000545    2.75  0.000112  ( 0.000033 -0.010377 -0.002057)
 35:   1662.54   0.000597    3.02  0.000112  (-0.000178  0.008698 -0.006035)
 36:   3036.67   0.004444   22.46  0.000457  ( 0.000796 -0.007910  0.019837)
 37:   3038.50   0.007939   40.12  0.000815  ( 0.028541  0.000228 -0.000881)
 38:   3066.35   0.002703   13.66  0.000275  (-0.000176 -0.013951 -0.008970)
 39:   3093.29   0.003511   17.74  0.000354  (-0.018818 -0.000253  0.000224)
 40:   3096.09   0.004887   24.69  0.000493  ( 0.000104  0.013328  0.017745)
 41:   3126.56   0.007016   35.45  0.000700  (-0.000585  0.016752 -0.020476)
 42:   3191.20   0.000674    3.41  0.000066  ( 0.008116  0.000081 -0.000198)
 43:   3216.22   0.003092   15.63  0.000300  (-0.000051  0.017238  0.001698)
 44:   3656.89   0.032476  164.12  0.002771  (-0.001196 -0.001239 -0.052615)

* The epsilon (eps) is given for a Dirac delta lineshape.
** The dipole moment derivative (T) already includes vibrational overlap.

The first frequency considered to be a vibration is 6
The total number of vibrations considered is 39


--------------------------
THERMOCHEMISTRY AT 298.15K
--------------------------

Temperature         ...   298.15 K
Pressure            ...     1.00 atm
Total Mass          ...    85.13 AMU
Quasi RRHO          ...     True
Cut-Off Frequency   ...     1.00 cm^-1

Throughout the following assumptions are being made:
  (1) The electronic state is orbitally nondegenerate
      but the spin degeneracy is treated
  (2) There are no thermally accessible electronically excited states
  (3) Hindered rotations indicated by low frequency modes are not
      treated as such but are treated as vibrations and this may
      cause some error
  (4) All equations used are the standard statistical mechanics
      equations for an ideal gas
  (5) All vibrations are strictly harmonic

freq.      42.06  E(vib)   ...       0.53 
freq.      51.33  E(vib)   ...       0.52 
freq.     125.09  E(vib)   ...       0.43 
freq.     170.23  E(vib)   ...       0.38 
freq.     334.97  E(vib)   ...       0.24 
freq.     389.75  E(vib)   ...       0.20 
freq.     397.30  E(vib)   ...       0.20 
freq.     609.22  E(vib)   ...       0.10 
freq.     729.79  E(vib)   ...       0.06 
freq.     782.44  E(vib)   ...       0.05 
freq.     833.47  E(vib)   ...       0.04 
freq.     895.98  E(vib)   ...       0.03 
freq.     919.03  E(vib)   ...       0.03 
freq.     925.78  E(vib)   ...       0.03 
freq.     983.27  E(vib)   ...       0.02 
freq.     983.66  E(vib)   ...       0.02 
freq.    1049.24  E(vib)   ...       0.02 
freq.    1079.72  E(vib)   ...       0.02 
freq.    1132.61  E(vib)   ...       0.01 
freq.    1159.18  E(vib)   ...       0.01 
freq.    1232.62  E(vib)   ...       0.01 
freq.    1245.10  E(vib)   ...       0.01 
freq.    1317.43  E(vib)   ...       0.01 
freq.    1331.88  E(vib)   ...       0.01 
freq.    1339.13  E(vib)   ...       0.01 
freq.    1392.26  E(vib)   ...       0.00 
freq.    1494.64  E(vib)   ...       0.00 
freq.    1498.13  E(vib)   ...       0.00 
freq.    1519.93  E(vib)   ...       0.00 
freq.    1662.54  E(vib)   ...       0.00 
freq.    3036.67  E(vib)   ...       0.00 
freq.    3038.50  E(vib)   ...       0.00 
freq.    3066.35  E(vib)   ...       0.00 
freq.    3093.29  E(vib)   ...       0.00 
freq.    3096.09  E(vib)   ...       0.00 
freq.    3126.56  E(vib)   ...       0.00 
freq.    3191.20  E(vib)   ...       0.00 
freq.    3216.22  E(vib)   ...       0.00 
freq.    3656.89  E(vib)   ...       0.00 

------------
INNER ENERGY
------------

The inner energy is: U= E(el) + E(ZPE) + E(vib) + E(rot) + E(trans)
    E(el)   - is the total energy from the electronic structure calculation
              = E(kin-el) + E(nuc-el) + E(el-el) + E(nuc-nuc)
    E(ZPE)  - the the zero temperature vibrational energy from the frequency calculation
    E(vib)  - the the finite temperature correction to E(ZPE) due to population
              of excited vibrational states
    E(rot)  - is the rotational thermal energy
    E(trans)- is the translational thermal energy

Summary of contributions to the inner energy U:
Electronic energy                ...   -270.66559710 Eh
Zero point energy                ...      0.12791805 Eh      80.27 kcal/mol
Thermal vibrational correction   ...      0.00481410 Eh       3.02 kcal/mol
Thermal rotational correction    ...      0.00141627 Eh       0.89 kcal/mol
Thermal translational correction ...      0.00141627 Eh       0.89 kcal/mol
-----------------------------------------------------------------------
Total thermal energy                   -270.53003242 Eh


Summary of corrections to the electronic energy:
(perhaps to be used in another calculation)
Total thermal correction                  0.00764664 Eh       4.80 kcal/mol
Non-thermal (ZPE) correction              0.12791805 Eh      80.27 kcal/mol
-----------------------------------------------------------------------
Total correction                          0.13556468 Eh      85.07 kcal/mol


--------
ENTHALPY
--------

The enthalpy is H = U + kB*T
                kB is Boltzmann's constant
Total thermal energy              ...   -270.53003242 Eh 
Thermal Enthalpy correction       ...      0.00094421 Eh       0.59 kcal/mol
-----------------------------------------------------------------------
Total Enthalpy                    ...   -270.52908821 Eh


Note: Only C1 symmetry has been detected, increase convergence thresholds 
      if your molecule has a higher symmetry. Symmetry factor of 1.0 is   
      used for the rotational entropy correction. 
 

Note: Rotational entropy computed according to Herzberg 
Infrared and Raman Spectra, Chapter V,1, Van Nostrand Reinhold, 1945 
Point Group:  C1, Symmetry Number:   1  
Rotational constants in cm-1:     0.132516     0.081531     0.081015 

Vibrational entropy computed according to the QRRHO of S. Grimme
Chem.Eur.J. 2012 18 9955 using a reference frequency of 100.0 cm-1


-------
ENTROPY
-------

The entropy contributions are T*S = T*(S(el)+S(vib)+S(rot)+S(trans))
     S(el)   - electronic entropy
     S(vib)  - vibrational entropy
     S(rot)  - rotational entropy
     S(trans)- translational entropy
The entropies will be listed as multiplied by the temperature to get
units of energy

Electronic entropy                ...      0.00065446 Eh      0.41 kcal/mol
Vibrational entropy               ...      0.00858118 Eh      5.38 kcal/mol
Rotational entropy                ...      0.01283477 Eh      8.05 kcal/mol
Translational entropy             ...      0.01864317 Eh     11.70 kcal/mol
-----------------------------------------------------------------------
Final entropy term                ...      0.04071358 Eh     25.55 kcal/mol

In case the symmetry of your molecule has not been determined correctly
or in case you have a reason to use a different symmetry number we print 
out the resulting rotational entropy values for sn=1,12:

 non-linear molecules -----------------------------------
|  sn= 1 | S(rot)=       0.01283477 Eh      8.05 kcal/mol|
|  sn= 2 | S(rot)=       0.01218032 Eh      7.64 kcal/mol|
|  sn= 3 | S(rot)=       0.01179748 Eh      7.40 kcal/mol|
|  sn= 4 | S(rot)=       0.01152586 Eh      7.23 kcal/mol|
|  sn= 5 | S(rot)=       0.01131517 Eh      7.10 kcal/mol|
|  sn= 6 | S(rot)=       0.01114303 Eh      6.99 kcal/mol|
|  sn= 7 | S(rot)=       0.01099748 Eh      6.90 kcal/mol|
|  sn= 8 | S(rot)=       0.01087140 Eh      6.82 kcal/mol|
|  sn= 9 | S(rot)=       0.01076020 Eh      6.75 kcal/mol|
|  sn=10 | S(rot)=       0.01066072 Eh      6.69 kcal/mol|
|  sn=11 | S(rot)=       0.01057073 Eh      6.63 kcal/mol|
|  sn=12 | S(rot)=       0.01048857 Eh      6.58 kcal/mol|
 linear molecules ---------------------------------------
|  Dinfh | S(rot)=       0.00769865 Eh      4.83 kcal/mol|
|  Cinfv | S(rot)=       0.00835311 Eh      5.24 kcal/mol|
 --------------------------------------------------------


-------------------
GIBBS FREE ENERGY
-------------------

The Gibbs free energy is G = H - T*S

Total enthalpy                    ...   -270.52908821 Eh 
Total entropy correction          ...     -0.04071358 Eh    -25.55 kcal/mol
-----------------------------------------------------------------------
Final Gibbs free energy         ...   -270.56980179 Eh

For completeness - the Gibbs free energy minus the electronic energy
G-E(el)                           ...      0.09579531 Eh     60.11 kcal/mol



--------------------------------
SUGGESTED CITATIONS FOR THIS RUN
--------------------------------

Below you find a list of papers that are relevant to this ORCA run
We neither can nor want to force you to cite these papers, but we appreciate if you do
You receive ORCA, which is the product of decades of hard work by many enthusiastic individuals, for free
The only thing we kindly ask in return is that you cite our papers,
We deeply appreciate it, if you show your appreciation for ORCA by not just citing the generic ORCA reference.

Please note that relegating all ORCA citations to the supporting information does *not* help us.
SI sections are not indexed - citations you put there will not count into any citation statistics
But we need these citations in order to attract the funding resources that allow us to do what we are doing

Therefore, if you are a happy ORCA user, please consider citing a few of the papers listed below in the main body of your paper

In addition to the list printed below, the program has created the file opt.bibtex that contains the list in bibtex format
You can import this file easily into all common literature databanks and citation aid programs

It goes without saying that in many instances, there are alternative algorithms to achieve similar
results as the ones you have gotten from ORCA. It is, of course, also the case that in some instances
ORCA just re-implements algorithms worked out by others. We are fully aware of that and we are also
fully appreciative of our colleagues work. Hence this citation list should not be read as indicating
that the listed papers, which are focused on our own work, are the only ones worth citing. It simply
meant to make it easier for users to cite ORCA specific papers. It is not a substitute for doing your
own literature research and citing the relevant literature in a scientifically appropriate manner.

List of essential papers. We consider these as the minimum necessary citations

  1. Neese, F.
     Software update: the ORCA program system, version 6.0
     WIRES Comput. Molec. Sci. 2025 15(1), e70019
     doi.org/10.1002/wcms.70019

List of papers to cite with high priority. The work reported in these papers was absolutely
necessary for this run to complete.
Our perspective: the developers of density functionals and basis sets usually get cited in chemistry papers
Good! But without the algorithms to do something with them, the functionals or basis sets would not do anything.
Hence, in our opinion, the algorithm design and method developments papers are equally worthy of getting cited

  1. Neese, F.
     An improvement of the resolution of the identity approximation for the formation of the Coulomb matrix
     J. Comp. Chem. 2003 24(14), 1740-1747
     doi.org/10.1002/jcc.10318
  2. Neese, F.; Schwabe, T.; Grimme, S.
     Analytic derivatives for perturbatively corrected 'double hybrid' density functionals: Theory, implementation, and applications
     J. Chem. Phys. 2007 126(12), Art. No. 124115
     doi.org/10.1063/1.2712433
  3. Neese, F.; Wennmohs, F.; Hansen, A.; Becker, U.
     Efficient, approximate and parallel Hartree-Fock and hybrid DFT calculations. A 'chain-of-spheres' algorithm for the Hartree-Fock exchange
     Chem. Phys. 2009 356(1-3), 98-109
     doi.org/10.1016/j.chemphys.2008.10.036
  4. Kossmann, S.; Neese, F.
     Efficient Structure Optimization with Second-Order Many-Body Perturbation Theory: The RIJCOSX-MP2 Method
     J. Theo. Comp. Chem. 2010 6 , 2325-2338
     doi.org/10.1021/ct100199k
  5. Caldeweyher, E.; Bannwarth, C.; Grimme, S.
     Extension of the D3 dispersion coefficient model
     J. Chem. Phys. 2017 147 , 034112
     doi.org/10.1063/1.4993215
  6. Caldeweyher, E.; Ehlert, S.; Hansen, A.; Neugebauer, H.; Spicher, S.; Bannwarth, C.; Grimme, S.
     A generally applicable atomic-charge dependent London dispersion correction
     J. Chem. Phys. 2019 150 , 154122
     doi.org/10.1063/1.5090222
  7. Helmich-Paris, B.; de Souza, B.; Neese, F.; Izsák, R.
     An improved chain of spheres for exchange algorithm
     J. Chem. Phys. 2021 155(10), 104109
     doi.org/10.1063/5.0058766
  8. Neese, F.
     The SHARK Integral Generation and Digestion System
     J. Comp. Chem. 2022 44(3), 381
     doi.org/10.1002/jcc.26942

List of suggested additional citations. These are papers that are important in the 'surrounding' of 
of this run, or papers that preceded the highly important papers. If you like your results we are grateful for a citation.

  1. Izsak, R.; Neese, F.
     An overlap fitted chain of spheres exchange method
     J. Chem. Phys. 2011 135 , 144105
     doi.org/10.1063/1.3646921
  2. Izsak, R.; Hansen, A.; Neese, F.
     The resolution of identity and chain of spheres approximations for the LPNO-CCSD singles Fock term
     Molec. Phys. 2012 110 , 2413-2417
     doi.org/10.1080/00268976.2012.687466
  3. Neese, F.
     The ORCA program system
     WIRES Comput. Molec. Sci. 2012 2(1), 73-78
     doi.org/10.1002/wcms.81
  4. Izsak, R.; Neese, F.; Klopper, W.
     Robust fitting techniques in the chain of spheres approximation to the Fock exchange: The role of the complementary space
     J. Chem. Phys. 2013 139 , 
     doi.org/10.1063/1.4819264
  5. Neese, F.
     Software update: the ORCA program system, version 4.0
     WIRES Comput. Molec. Sci. 2018 8(1), 1-6
     doi.org/10.1002/wcms.1327
  6. Neese, F.; Wennmohs, F.; Becker, U.; Riplinger, C.
     The ORCA quantum chemistry program package
     J. Chem. Phys. 2020 152(22), 224108
     doi.org/10.1063/5.0004608
  7. Neese, F.
     Software update: The ORCA program system—Version 5.0
     WIRES Comput. Molec. Sci. 2022 12(1), e1606
     doi.org/10.1002/wcms.1606

List of optional additional citations

  1. Neese, F.
     Approximate second-order SCF convergence for spin unrestricted wavefunctions
     Chem. Phys. Lett. 2000 325(1-3), 93-98
     doi.org/10.1016/s0009-2614(00)00662-x

Timings for individual modules:

Sum of individual times          ...    12954.428 sec (= 215.907 min)
Startup calculation              ...      148.931 sec (=   2.482 min)   1.1 %
SCF iterations                   ...     1512.208 sec (=  25.203 min)  11.7 %
Property calculations            ...        3.674 sec (=   0.061 min)   0.0 %
MP2 module                       ...     1560.119 sec (=  26.002 min)  12.0 %
Geometry relaxation              ...        0.838 sec (=   0.014 min)   0.0 %
Numerical frequency calculation  ...     9728.659 sec (= 162.144 min)  75.1 %
                             ****ORCA TERMINATED NORMALLY****
TOTAL RUN TIME: 0 days 3 hours 34 minutes 50 seconds 816 msec
