
                                 *****************
                                 * O   R   C   A *
                                 *****************

                                            #,                                       
                                            ###                                      
                                            ####                                     
                                            #####                                    
                                            ######                                   
                                           ########,                                 
                                     ,,################,,,,,                         
                               ,,#################################,,                 
                          ,,##########################################,,             
                       ,#########################################, ''#####,          
                    ,#############################################,,   '####,        
                  ,##################################################,,,,####,       
                ,###########''''           ''''###############################       
              ,#####''   ,,,,##########,,,,          '''####'''          '####       
            ,##' ,,,,###########################,,,                        '##       
           ' ,,###''''                  '''############,,,                           
         ,,##''                                '''############,,,,        ,,,,,,###''
      ,#''                                            '''#######################'''  
     '                                                          ''''####''''         
             ,#######,   #######,   ,#######,      ##                                
            ,#'     '#,  ##    ##  ,#'     '#,    #''#        ,####,    ,#,          
            ##       ##  ##   ,#'  ##            #'  '#       #'       ,# #          
            ##       ##  #######   ##           ,######,      #####,      #          
            '#,     ,#'  ##    ##  '#,     ,#' ,#      #,     #,   #      #          
             '#######'   ##     ##  '#######'  #'      '#     '####' #    #          



                #########################################################
                #                        -***-                          #
                #          Department of theory and spectroscopy        #
                #                                                       #
                #                      Frank Neese                      #
                #                                                       #
                #     Directorship, Architecture, Infrastructure        #
                #                    SHARK, DRIVERS                     #
                #        Core code/Algorithms in most modules           #
                #                                                       #
                #        Max Planck Institute fuer Kohlenforschung      #
                #                Kaiser Wilhelm Platz 1                 #
                #                 D-45470 Muelheim/Ruhr                 #
                #                      Germany                          #
                #                                                       #
                #                  All rights reserved                  #
                #                        -***-                          #
                #########################################################


                         Program Version 6.1.1  -  RELEASE   -
                                (GIT: $487d211c$)
                          ($2025-11-21 10:33:24 +0100$)


 With contributions from (in alphabetic order):
[Max-Planck-Institut fuer Kohlenforschung]                               
  Daniel Aravena         : Magnetic Suceptibility                        
  Michael Atanasov       : Ab Initio Ligand Field Theory (pilot matlab implementation)
  Alexander A. Auer      : GIAO ZORA, VPT2 properties, NMR spectrum      
  Ute Becker             : All parallelization in ORCA, NUMFREQ, NUMCALC 
  Giovanni Bistoni       : ED, misc. LED, open-shell LED, HFLD           
  Dmytro Bykov           : pre 5.0 version of the SCF Hessian            
  Marcos Casanova-Páez   : Triplet and SCS-CIS(D). UHF-(DLPNO)-IP/EA/STEOM-CCSD. UHF-CVS-IP/STEOM-CCSD   
  Vijay G. Chilkuri      : MRCI spin determinant printing, contributions to CSF-ICE 
  Pauline Colinet        : FMM embedding                                 
  Dipayan Datta          : RHF DLPNO-CCSD density                        
  Achintya Kumar Dutta   : EOM-CC, STEOM-CC                              
  Nicolas Foglia         : Exact transition moments, OPA infrastructure, MCD improvements    
  Dmitry Ganyushin       : Spin-Orbit,Spin-Spin,Magnetic field MRCI      
  Miquel Garcia-Rates    : C-PCM and meta-GGA Hessian, CCSD/C-PCM, Gaussian charge scheme 
  Tiago L. C. Gouveia    : GS-ROHF, GS-ROCIS                             
  Yang Guo               : DLPNO-NEVPT2, F12-NEVPT2, CIM, IAO-localization        
  Andreas Hansen         : Spin unrestricted coupled pair/coupled cluster methods 
  Ingolf Harden          : AUTO-CI MPn and infrastructure                
  Benjamin Helmich-Paris : MC-RPA, TRAH-(SCF,CASSCF), AVAS, COSX integrals, SCF dyn. polar., MC-PDFT, srDFT 
  Lee Huntington         : MR-EOM, pCC                                   
  Robert Izsak           : Overlap fitted RIJCOSX, COSX-SCS-MP3, EOM     
  Riya Kayal             : Wick's Theorem for AUTO-CI, AUTO-CI UHF-CCSDT 
  Emily Kempfer          : AUTO-CI RHF CISDT and CCSDT, approximate NEVPT4
  Christian Kollmar      : KDIIS, OOCD, Brueckner-CCSD(T), CCSD density, CASPT2, CASPT2-K, improved NEVPT2 
  Axel Koslowski         : Symmetry handling                             
  Simone Kossmann        : meta-GGA functionals, TD-DFT gradient, OOMP2, (MP2 Hessian; deprecated post 5.0) 
  Lucas Lang             : DCDCAS, Hyperfine gauge corrections, ICE-SOC+SSC
  Marvin Lechner         : AUTO-CI (C++ implementation), FIC-MRCC        
  Spencer Leger          : CASSCF response                               
  Dagmar Lenk            : GEPOL surface, SMD, ORCA-2-JSON               
  Dimitrios Liakos       : Extrapolation schemes; Compound Job, Property file
  Dimitrios Manganas     : Further ROCIS development; embedding schemes. LFT, Crystal Embedding 
  Dimitrios Pantazis     : SARC Basis sets                               
  Anastasios Papadopoulos: AUTO-CI, single reference methods and gradients 
  Taras Petrenko         : pre 6.0 DFT Hessian and TD-DFT gradient,  ECA, NRVS 
  Petra Pikulova         : Analytic Raman intensities                    
  Peter Pinski           : DLPNO-MP2, DLPNO-MP2 Gradient                 
  Shashank Vittal Rao    : ES-AILFT, MagRelax                            
  Christoph Reimann      : Effective Core Potentials                     
  Marius Retegan         : Local ZFS, SOC                                
  Christoph Riplinger    : Optimizer, TS searches, QM/MM, DLPNO-CCSD(T), (RO)-DLPNO pert. Triples 
  Michael Roemelt        : Original ROCIS implementation, recursive CI coupling coefficients
  Masaaki Saitow         : Open-shell DLPNO-CCSD energy and density      
  Barbara Sandhoefer     : DKH picture change effects                    
  Yorick L. A. Schmerwitz: GMF and freeze-and-release deltaSCF, NEB S-IDPP initial path                    
  Kantharuban Sivalingam : CASSCF convergence/infrastructure, NEVPT2, NEVPT3, NEVPT4(SD), FIC-MRCI and CEPA variants
  Bernardo de Souza      : ESD, SOC TD-DFT                               
  Georgi L. Stoychev     : AutoAux, RI-MP2 NMR, DLPNO-MP2 response, X2C  
  Van Anh Tran           : RI-MP2 g-tensors                              
  Willem Van den Heuvel  : Paramagnetic NMR                              
  Zikuan Wang            : NOTCH, Electric field optimization            
  Frank Wennmohs         : Technical directorship and infrastructure     
  Hang Xu                : AUTO-CI-Response properties                   
                                                                         
[FACCTs GmbH]                                                            
  Markus Bursch, Nicolas Foglia, Miquel Garcia-Rates, Ingolf Harden, Hagen Neugebauer, Anastasios Papadopoulos, 
  Christoph Riplinger, Bernardo de Souza, Georgi L. Stoychev                                                    
                                                                 
  APM, various basis sets, CI-OPT, improved COSX, DLPNO-Multilevel,           
  DOCKER, DRACO, updates on ESD, Fragmentator, GOAT, IRC, LR-CPCM, L-BFGS, MBIS, meta-GGA TD-DFT gradient, ML-optimized integration grids, 
  MM, NACMEs, nearIR, NEB, NEB-TS, NL-DFT gradient (VV10), 2- and 3-layer-ONIOM, interface openCOSMO-RS, QMMM,   
  Crystal-QMMM, RESP, rigid body optimization, SF, symmetry and pop. for TD-DFT, various functionals, SOLVATOR                                   
                                                                         
[Other institutions]                                                     
  V. Asgeirsson          : NEB                                           
  Christoph Bannwarth    : sTDA-DFT, sTD-DFT, PBEh-3c, B97-3c, D3        
  Giovanni Bistoni       : ETS/NOCV, ADLD/ADEX, COVALED                  
  Martin Brehm           : Molecular dynamics                            
  Ronald Cardenas        : ETS/NOCV                                      
  Martina Colucci        : COVALED                                       
  Sebastian Ehlert       : rSCAN, r2SCAN, r2SCAN-3c, D4, dhf basis sets  
  Marvin Friede          : D4 for Fr, Ra, Ac-Lr                          
  Lars Goerigk           : TD-DFT with DH, B97 family of functionals     
  Stefan Grimme          : VdW corrections, initial TS optimization, DFT functionals, gCP, sTDA/sTD-DF 
  Waldemar Hujo          : DFT-NL                                        
  H. Jonsson             : NEB                                           
  Holger Kruse           : gCP                                           
  Marcel Mueller         : wB97X-3c, vDZP basis set                      
  Hagen Neugebauer       : wr2SCAN, Native XTB                           
  Gianluca Regni         : ADLD/ADEX                                     
  Tobias Risthaus        : pre 6.0 range-separated hybrid DFT and stability analysis
  Lukas Wittmann         : regularized MP2, r2SCAN double-hybrids, wr2SCAN        
                                                                         
We gratefully acknowledge several colleagues who have allowed us to      
interface, adapt or use parts of their codes:                            
  Ed Valeev, F. Pavosevic, A. Kumar             : LibInt (2-el integral package), F12 methods 
  Garnet Chan, S. Sharma, J. Yang, R. Olivares  : DMRG                   
  Ulf Ekstrom                                   : XCFun DFT Library      
  Mihaly Kallay                                 : mrcc  (arbitrary order and MRCC methods)
  Frank Weinhold                                : gennbo (NPA and NBO analysis)           
  Simon Mueller                                 : openCOSMO-RS                            
  Christopher J. Cramer and Donald G. Truhlar   : smd solvation model                     
  S Lehtola, MJT Oliveira, MAL Marques          : LibXC Library                           
  Liviu Ungur et al                             : ANISO software                          


 Your calculation uses the libint2 library for the computation of 2-el integrals
 For citations please refer to: http://libint.valeyev.net

 Your ORCA version has been built with support for libXC version: 7.0.0
 For citations please refer to: https://libxc.gitlab.io

 This ORCA versions uses:
   CBLAS   interface :  Fast vector & matrix operations
   LAPACKE interface :  Fast linear algebra routines
   SCALAPACK package :  Parallel linear algebra routines
   Shared memory     :  Shared parallel matrices
   BLAS/LAPACK       :  OpenBLAS 0.3.29  USE64BITINT DYNAMIC_ARCH NO_AFFINITY Cooperlake SINGLE_THREADED
        Core in use  :  Cooperlake
   Copyright (c) 2011-2014, The OpenBLAS Project


  ***********************************
  * Starting time: Thu Mar 12 16:41:49 2026
  * Host name:     e1-9
  * Process ID:    424495
  * Working dir.:  /tmp/lscratch/avcopan/43561356
  ***********************************

NOTE: MaxCore=6000 MB was set to SCF,MP2,MDCI,CIPSI,MRCI,RASCI and CIS
      => If you want to overwrite this, your respective input block should be placed after the MaxCore statement


***************************************
The coordinates will be read from file: guess.xyz
***************************************


Your calculation utilizes the atom-pairwise dispersion correction
based on EEQ partial charges (D4)


Warning: RI is on but no J-basis has been assigned. Assigning Def2/J (nothing to worry about!)
================================================================================

----- Orbital basis set information -----
Your calculation utilizes the basis: def2-TZVPP
   F. Weigend and R. Ahlrichs, Phys. Chem. Chem. Phys. 7, 3297 (2005).

----- AuxJ basis set information -----
Your calculation utilizes the auxiliary basis: def2/J
   H-Rn: F. Weigend, Phys. Chem. Chem. Phys. 8, 1057 (2006).
   Fr-Lr: K. Eichkorn, F. Weigend, O. Treutler, R. Ahlrichs; Theor. Chem. Acc. 97, 119 (1997).

----- AuxC basis set information -----
Your calculation utilizes the auxiliary basis: def2-TZVPP/C
  H-La, Hf-Rn : A. Hellweg, C. Hattig, S. Hofener and W. Klopper, Theor. Chem. Acc. 117, 587 (2007).
        Ce-Lu : J. Chmela and M. E. Harding, Mol. Phys. (2018).

================================================================================
                                        WARNINGS
                       Please study these warnings very carefully!
================================================================================


WARNING: your system is open-shell and RHF/RKS was chosen
  ===> : WILL SWITCH to UHF/UKS


WARNING: The frozen-core approximation for MP2-gradient calculations is turned on by default.

WARNING: The environment variable RSH_COMMAND is not set!
  ===> : All Displacements for the Numerical Hessian or Gradient calculation
         will be started on localhost

WARNING: Geometry Optimization
  ===> : Switching off AutoStart
         For restart on a previous wavefunction, please use MOREAD

WARNING: The frozen-core approximation is turned on by default for 
         the MP2 part of double-hybrid DFT.

================================================================================
                                       INPUT FILE
================================================================================
NAME = opt.inp
|  1> % MaxCore 6000
|  2> ! PAL8
|  3> ! REVDSD-PBEP86-D4/2021 def2-TZVPP def2-TZVPP/c
|  4> ! VeryTightSCF DefGrid3
|  5> ! Opt
|  6> ! NumFreq
|  7> * xyzfile 0 2 guess.xyz
|  8> 
|  9>                          ****END OF INPUT****
================================================================================

                       *****************************
                       * Geometry Optimization Run *
                       *****************************

Geometry optimization settings:
Update method            Update   .... BFGS
Choice of coordinates    CoordSys .... (2022) Redundant Internals
Initial Hessian          InHess   .... Almloef's Model
Max. no of cycles        MaxIter  .... 50

Convergence Tolerances:
Energy Change            TolE     ....  5.0000e-06 Eh
Max. Gradient            TolMAXG  ....  3.0000e-04 Eh/bohr
RMS Gradient             TolRMSG  ....  1.0000e-04 Eh/bohr
Max. Displacement        TolMAXD  ....  4.0000e-03 bohr
RMS Displacement         TolRMSD  ....  2.0000e-03 bohr
Strict Convergence                .... False

------------------------------------------------------------------------------
                        ORCA OPTIMIZATION COORDINATE SETUP
------------------------------------------------------------------------------

The optimization will be done in redundant internal coordinates (2022)
Making redundant internal coordinates   ...  (2022 redundants) done
Evaluating the initial hessian          ...  (Almloef) done
Evaluating the coordinates              ...  done
Calculating the B-matrix                .... done
Calculating the G-matrix                .... done
The number of degrees of freedom        ....   57

    -----------------------------------------------------------------
                    Redundant Internal Coordinates


    -----------------------------------------------------------------
         Definition                    Initial Value    Approx d2E/dq
    -----------------------------------------------------------------
      1. B(C   1,C   0)                  1.3348         0.765316   
      2. B(H   2,C   0)                  1.0826         0.369996   
      3. B(C   3,C   1)                  1.5083         0.404581   
      4. B(H   4,C   1)                  1.0826         0.369989   
      5. B(C   5,C   3)                  1.5347         0.367173   
      6. B(H   6,C   3)                  1.0924         0.356931   
      7. B(H   7,C   3)                  1.0969         0.351083   
      8. B(C   8,C   5)                  1.5348         0.367073   
      9. B(C   8,C   0)                  1.5083         0.404588   
     10. B(H   9,C   5)                  1.0897         0.360455   
     11. B(H  10,C   8)                  1.0924         0.356923   
     12. B(H  11,C   8)                  1.0969         0.351070   
     13. A(H   2,C   0,C   8)          122.9762         0.330080   
     14. A(C   1,C   0,H   2)          124.9639         0.367495   
     15. A(C   1,C   0,C   8)          112.0376         0.417581   
     16. A(C   0,C   1,H   4)          124.9642         0.367494   
     17. A(C   0,C   1,C   3)          112.0363         0.417580   
     18. A(C   3,C   1,H   4)          122.9774         0.330078   
     19. A(C   5,C   3,H   6)          112.1148         0.322932   
     20. A(C   1,C   3,H   6)          113.0261         0.328125   
     21. A(H   6,C   3,H   7)          106.9356         0.289283   
     22. A(C   5,C   3,H   7)          111.3650         0.322059   
     23. A(C   1,C   3,H   7)          110.8187         0.327233   
     24. A(C   1,C   3,C   5)          102.6616         0.367257   
     25. A(C   3,C   5,H   9)          115.0659         0.323452   
     26. A(C   3,C   5,C   8)          106.9491         0.361196   
     27. A(C   8,C   5,H   9)          115.0633         0.323438   
     28. A(C   0,C   8,C   5)          102.6599         0.367241   
     29. A(H  10,C   8,H  11)          106.9269         0.289280   
     30. A(C   5,C   8,H  11)          111.3592         0.322042   
     31. A(C   0,C   8,H  11)          110.8190         0.327232   
     32. A(C   5,C   8,H  10)          112.1315         0.322916   
     33. A(C   0,C   8,H  10)          113.0257         0.328125   
     34. D(H   4,C   1,C   0,H   2)     -0.0164         0.041936   
     35. D(C   3,C   1,C   0,C   8)     -0.0065         0.041936   
     36. D(C   3,C   1,C   0,H   2)    178.3116         0.041936   
     37. D(H   4,C   1,C   0,C   8)   -178.3345         0.041936   
     38. D(C   5,C   3,C   1,H   4)   -169.9960         0.012136   
     39. D(C   5,C   3,C   1,C   0)     11.6374         0.012136   
     40. D(H   6,C   3,C   1,C   0)    132.6169         0.012136   
     41. D(H   7,C   3,C   1,C   0)   -107.3680         0.012136   
     42. D(H   6,C   3,C   1,H   4)    -49.0165         0.012136   
     43. D(H   9,C   5,C   3,H   6)     90.9379         0.010107   
     44. D(H   9,C   5,C   3,C   1)   -147.4594         0.010107   
     45. D(C   8,C   5,C   3,H   7)    100.3192         0.010107   
     46. D(C   8,C   5,C   3,C   1)    -18.3031         0.010107   
     47. D(C   8,C   5,C   3,H   6)   -139.9059         0.010107   
     48. D(C   5,C   8,C   0,C   1)    -11.6267         0.012136   
     49. D(H  11,C   8,C   5,C   3)   -100.3194         0.010102   
     50. D(H  10,C   8,C   5,C   3)    139.9093         0.010102   
     51. D(C   0,C   8,C   5,H   9)    147.4574         0.010102   
     52. D(C   0,C   8,C   5,C   3)     18.2996         0.010102   
     53. D(H  11,C   8,C   0,C   1)    107.3711         0.012136   
     54. D(H  10,C   8,C   0,H   2)     49.0181         0.012136   
     55. D(H  10,C   8,C   5,H   9)    -90.9329         0.010102   
     56. D(H  10,C   8,C   0,C   1)   -132.6249         0.012136   
     57. D(C   5,C   8,C   0,H   2)    170.0163         0.012136   
    -----------------------------------------------------------------

Number of atoms                         .... 12
Number of degrees of freedom            .... 57


         *************************************************************
         *                GEOMETRY OPTIMIZATION CYCLE   1            *
         *************************************************************
---------------------------------
CARTESIAN COORDINATES (ANGSTROEM)
---------------------------------
  C     -1.439029   -0.667712   -0.549616
  C     -1.437587    0.667066   -0.550348
  H     -2.099542   -1.287730   -1.142377
  C     -0.425165    1.232405    0.414199
  H     -2.096591    1.287867   -1.143979
  C      0.405839   -0.001535    0.791219
  H      0.188077    2.022821   -0.024582
  H     -0.921583    1.663390    1.292275
  C     -0.427732   -1.234209    0.415423
  H      0.797165   -0.001452    1.808264
  H      0.183642   -2.026531   -0.022540
  H     -0.924988   -1.663219    1.294005

----------------------------
CARTESIAN COORDINATES (A.U.)
----------------------------
  NO LB      ZA    FRAG     MASS         X           Y           Z
   0 C     6.0000    0    12.011   -2.719370   -1.261792   -1.038624
   1 C     6.0000    0    12.011   -2.716645    1.260572   -1.040006
   2 H     1.0000    0     1.008   -3.967560   -2.433456   -2.158780
   3 C     6.0000    0    12.011   -0.803445    2.328908    0.782723
   4 H     1.0000    0     1.008   -3.961983    2.433717   -2.161806
   5 C     6.0000    0    12.011    0.766924   -0.002901    1.495187
   6 H     1.0000    0     1.008    0.355414    3.822577   -0.046453
   7 H     1.0000    0     1.008   -1.741539    3.143352    2.442046
   8 C     6.0000    0    12.011   -0.808296   -2.332317    0.785036
   9 H     1.0000    0     1.008    1.506424   -0.002744    3.417123
  10 H     1.0000    0     1.008    0.347033   -3.829588   -0.042594
  11 H     1.0000    0     1.008   -1.747974   -3.143028    2.445315

--------------------------------
INTERNAL COORDINATES (ANGSTROEM)
--------------------------------
 C      0   0   0     0.000000000000     0.00000000     0.00000000
 C      1   0   0     1.334778733361     0.00000000     0.00000000
 H      1   2   0     1.082620592513   124.96386517     0.00000000
 C      2   1   3     1.508295838598   112.03628988   178.31158041
 H      2   1   3     1.082625743800   124.96419469     0.00000000
 C      4   2   1     1.534704877922   102.66163737    11.63740276
 H      4   2   1     1.092406333823   113.02610954   132.61688610
 H      4   2   1     1.096902955174   110.81872151   252.63201772
 C      1   2   3     1.508290589428   112.03760835   181.68187860
 H      6   4   2     1.089732058523   115.06591007   212.54057912
 H      9   1   2     1.092412022390   113.02565100   227.37506987
 H      9   1   2     1.096913135640   110.81903381   107.37112479

---------------------------
INTERNAL COORDINATES (A.U.)
---------------------------
 C      0   0   0     0.000000000000     0.00000000     0.00000000
 C      1   0   0     2.522366255435     0.00000000     0.00000000
 H      1   2   0     2.045856426794   124.96386517     0.00000000
 C      2   1   3     2.850266063884   112.03628988   178.31158041
 H      2   1   3     2.045866161315   124.96419469     0.00000000
 C      4   2   1     2.900171915665   102.66163737    11.63740276
 H      4   2   1     2.064348797887   113.02610954   132.61688610
 H      4   2   1     2.072846180768   110.81872151   252.63201772
 C      1   2   3     2.850256144389   112.03760835   181.68187860
 H      6   4   2     2.059295149962   115.06591007   212.54057912
 H      9   1   2     2.064359547720   113.02565100   227.37506987
 H      9   1   2     2.072865419061   110.81903381   107.37112479

---------------------
BASIS SET INFORMATION
---------------------
There are 2 groups of distinct atoms

 Group   1 Type C   : 11s6p2d1f contracted to 5s3p2d1f pattern {62111/411/11/1}
 Group   2 Type H   : 5s2p1d contracted to 3s2p1d pattern {311/11/1}

Atom   0C    basis set group =>   1
Atom   1C    basis set group =>   1
Atom   2H    basis set group =>   2
Atom   3C    basis set group =>   1
Atom   4H    basis set group =>   2
Atom   5C    basis set group =>   1
Atom   6H    basis set group =>   2
Atom   7H    basis set group =>   2
Atom   8C    basis set group =>   1
Atom   9H    basis set group =>   2
Atom  10H    basis set group =>   2
Atom  11H    basis set group =>   2
---------------------------------
AUXILIARY/J BASIS SET INFORMATION
---------------------------------
There are 2 groups of distinct atoms

 Group   1 Type C   : 12s5p4d2f1g contracted to 6s4p3d1f1g pattern {711111/2111/211/2/1}
 Group   2 Type H   : 5s2p1d contracted to 3s1p1d pattern {311/2/1}

Atom   0C    basis set group =>   1
Atom   1C    basis set group =>   1
Atom   2H    basis set group =>   2
Atom   3C    basis set group =>   1
Atom   4H    basis set group =>   2
Atom   5C    basis set group =>   1
Atom   6H    basis set group =>   2
Atom   7H    basis set group =>   2
Atom   8C    basis set group =>   1
Atom   9H    basis set group =>   2
Atom  10H    basis set group =>   2
Atom  11H    basis set group =>   2
---------------------------------
AUXILIARY/C BASIS SET INFORMATION
---------------------------------
There are 2 groups of distinct atoms

 Group   1 Type C   : 8s6p5d3f1g contracted to 8s6p4d3f1g pattern {11111111/111111/2111/111/1}
 Group   2 Type H   : 4s3p2d1f contracted to 4s3p2d1f pattern {1111/111/11/1}

Atom   0C    basis set group =>   1
Atom   1C    basis set group =>   1
Atom   2H    basis set group =>   2
Atom   3C    basis set group =>   1
Atom   4H    basis set group =>   2
Atom   5C    basis set group =>   1
Atom   6H    basis set group =>   2
Atom   7H    basis set group =>   2
Atom   8C    basis set group =>   1
Atom   9H    basis set group =>   2
Atom  10H    basis set group =>   2
Atom  11H    basis set group =>   2


           ************************************************************
           *        Program running with 8 parallel MPI-processes     *
           *              working on a common directory               *
           ************************************************************
------------------------------------------------------------------------------
                             ORCA STARTUP CALCULATIONS
                           -- RI-GTO INTEGRALS CHOSEN --
------------------------------------------------------------------------------
------------------------------------------------------------------------------
                   ___                                                        
                  /   \      - P O W E R E D   B Y -                         
                 /     \                                                     
                 |  |  |   _    _      __       _____    __    __             
                 |  |  |  | |  | |    /  \     |  _  \  |  |  /  |          
                  \  \/   | |  | |   /    \    | | | |  |  | /  /          
                 / \  \   | |__| |  /  /\  \   | |_| |  |  |/  /          
                |  |  |   |  __  | /  /__\  \  |    /   |      \           
                |  |  |   | |  | | |   __   |  |    \   |  |\   \          
                \     /   | |  | | |  |  |  |  | |\  \  |  | \   \       
                 \___/    |_|  |_| |__|  |__|  |_| \__\ |__|  \__/        
                                                                              
                      - O R C A' S   B I G   F R I E N D -                    
                                      &                                       
                       - I N T E G R A L  F E E D E R -                       
                                                                              
 v1 FN, 2020, v2 2021, v3 2022-2024                                           
------------------------------------------------------------------------------


----------------------
SHARK INTEGRAL PACKAGE
----------------------

Number of atoms                             ...     12
Number of basis functions                   ...    253
Number of shells                            ...     97
Maximum angular momentum                    ...      3
Integral batch strategy                     ... SHARK/LIBINT Hybrid
RI-J (if used) integral strategy            ... SPLIT-RIJ (Revised 2003 algorithm where possible)
Printlevel                                  ...      1
Contraction scheme used                     ... SEGMENTED contraction
Prescreening option                         ... SCHWARTZ
   Thresh                                   ... 1.000e-12
   Tcut                                     ... 1.000e-14
   Tpresel                                  ... 1.000e-14 
Coulomb Range Separation                    ... NOT USED
Exchange Range Separation                   ... NOT USED
Multipole approximations                    ... NOT USED
Finite Nucleus Model                        ... NOT USED
CABS basis                                  ... NOT available
Auxiliary Coulomb fitting basis             ... AVAILABLE
   # of basis functions in Aux-J            ...    322
   # of shells in Aux-J                     ...    110
   Maximum angular momentum in Aux-J        ...      4
Auxiliary J/K fitting basis                 ... NOT available
Auxiliary Correlation fitting basis         ... AVAILABLE
   # of basis functions in Aux-C            ...    590
   # of shells in Aux-C                     ...    180
   Maximum angular momentum in Aux-C        ...      4
Auxiliary 'external' fitting basis          ... NOT available

Checking pre-screening integrals            ... done (  0.0 sec) Dimension = 97
   => SHARK Basis and OBASIS are compatible. Storing Pre-screening
Shell pair information
Shell pair cut-off parameter TPreSel        ...   1.0e-14
Total number of shell pairs                 ...      4753
Shell pairs after pre-screening             ...      4635
Total number of primitive shell pairs       ...     12377
Primitive shell pairs kept                  ...     10164
          la=0 lb=0:   1030 shell pairs
          la=1 lb=0:   1294 shell pairs
          la=1 lb=1:    426 shell pairs
          la=2 lb=0:    768 shell pairs
          la=2 lb=1:    489 shell pairs
          la=2 lb=2:    153 shell pairs
          la=3 lb=0:    230 shell pairs
          la=3 lb=1:    145 shell pairs
          la=3 lb=2:     85 shell pairs
          la=3 lb=3:     15 shell pairs

Checking whether 4 symmetric matrices of dimension 253 fit in memory
:Max Core in MB      =   6000.00
 MB in use           =      9.19
 MB left             =   5990.81
 MB needed           =      0.98
 Data fit in memory  = YES
Calculating RI/J V-Matrix + Cholesky decomp.... done (  0.0 sec)
Calculating RI/C V-Matrix + Cholesky decomp.... done (  0.0 sec)
Calculating Nuclear repulsion               ... done (  0.0 sec) ENN=    162.309935388450 Eh

Diagonalization of the overlap matrix:
Smallest eigenvalue                        ... 9.561e-05
Time for diagonalization                   ...    0.007 sec
Threshold for overlap eigenvalues          ... 1.000e-07
Number of eigenvalues below threshold      ... 0
Time for construction of square roots      ...    0.002 sec
Total time needed                          ...    0.011 sec

-------------------
DFT GRID GENERATION
-------------------

General Integration Accuracy     IntAcc      ... 4.959
Radial Grid Type                 RadialGrid  ... OptM3 with GC (2021)
Angular Grid (max. ang.)         AngularGrid ... 6 (Lebedev-590)
Angular grid pruning method      GridPruning ... 4 (adaptive)
Weight generation scheme         WeightScheme... mBecke (2022)
Basis function cutoff            BFCut       ... 1.0000e-12
Integration weight cutoff        WCut        ... 1.0000e-14
Partially contracted basis set               ... off
Rotationally invariant grid construction     ... off
Angular grids for H and He will be reduced by one unit

Total number of grid points                  ...   133153
Total number of batches                      ...     2086
Average number of points per batch           ...       63
Average number of grid points per atom       ...    11096

--------------------
COSX GRID GENERATION
--------------------

GRIDX 1
-------
General Integration Accuracy     IntAcc      ... 4.020
Radial Grid Type                 RadialGrid  ... OptM3 with GC (2021)
Angular Grid (max. ang.)         AngularGrid ... 2 (Lebedev-110)
Angular grid pruning method      GridPruning ... 4 (adaptive)
Weight generation scheme         WeightScheme... mBecke (2022)
Basis function cutoff            BFCut       ... 1.0000e-12
Integration weight cutoff        WCut        ... 1.0000e-14
Partially contracted basis set               ... on
Rotationally invariant grid construction     ... off
Angular grids for H and He will be reduced by one unit

Total number of grid points                  ...    14454
Total number of batches                      ...      121
Average number of points per batch           ...      119
Average number of grid points per atom       ...     1204
UseSFitting                                  ... on

GRIDX 2
-------
General Integration Accuracy     IntAcc      ... 4.338
Radial Grid Type                 RadialGrid  ... OptM3 with GC (2021)
Angular Grid (max. ang.)         AngularGrid ... 3 (Lebedev-194)
Angular grid pruning method      GridPruning ... 4 (adaptive)
Weight generation scheme         WeightScheme... mBecke (2022)
Basis function cutoff            BFCut       ... 1.0000e-12
Integration weight cutoff        WCut        ... 1.0000e-14
Partially contracted basis set               ... on
Rotationally invariant grid construction     ... off
Angular grids for H and He will be reduced by one unit

Total number of grid points                  ...    31711
Total number of batches                      ...      254
Average number of points per batch           ...      124
Average number of grid points per atom       ...     2643
UseSFitting                                  ... on

GRIDX 3
-------
General Integration Accuracy     IntAcc      ... 4.871
Radial Grid Type                 RadialGrid  ... OptM3 with GC (2021)
Angular Grid (max. ang.)         AngularGrid ... 4 (Lebedev-302)
Angular grid pruning method      GridPruning ... 4 (adaptive)
Weight generation scheme         WeightScheme... mBecke (2022)
Basis function cutoff            BFCut       ... 1.0000e-12
Integration weight cutoff        WCut        ... 1.0000e-14
Partially contracted basis set               ... on
Rotationally invariant grid construction     ... off
Angular grids for H and He will be reduced by one unit

Total number of grid points                  ...    62116
Total number of batches                      ...      490
Average number of points per batch           ...      126
Average number of grid points per atom       ...     5176
UseSFitting                                  ... on
Grids setup in   1.3 sec
Initializing property integral containers    ... done (  0.0 sec)

SHARK setup successfully completed in   1.5 seconds

Maximum memory used throughout the entire STARTUP-calculation: 33.8 MB


           ************************************************************
           *        Program running with 8 parallel MPI-processes     *
           *              working on a common directory               *
           ************************************************************
-------------------------------------------------------------------------------
                                 ORCA GUESS
                   Start orbitals & Density for SCF / CASSCF
-------------------------------------------------------------------------------

------------
SCF SETTINGS
------------
Hamiltonian:
 Density Functional     Method          .... DFT(GTOs)
 Exchange Functional    Exchange        .... PBE
   PBE kappa parameter   XKappa         ....  0.804000
   PBE mue parameter    XMuePBE         ....  0.219520
 Correlation Functional Correlation     .... P86
 LDA part of GGA corr.  LDAOpt          .... VWN-5
 Gradients option       PostSCFGGA      .... off
 Hybrid DFT is turned on
   Fraction HF Exchange ScalHFX         ....  0.690000
   Scaling of DF-GGA-X  ScalDFX         ....  0.310000
   Scaling of DF-GGA-C  ScalDFC         ....  0.422400
   Scaling of DF-LDA-C  ScalLDAC        ....  0.422400
   Perturbative correction              ....  1.000000
 RI-approximation to the Coulomb term is turned on
   Number of AuxJ basis functions       .... 322
   RIJ-COSX (HFX calculated with COS-X)).... on


General Settings:
 Integral files         IntName         .... opt
 Hartree-Fock type      HFTyp           .... UHF
 Total Charge           Charge          ....    0
 Multiplicity           Mult            ....    2
 Number of Electrons    NEL             ....   37
 Basis Dimension        Dim             ....  253
 Nuclear Repulsion      ENuc            ....    162.3099353884 Eh

Convergence Acceleration:
 AO-DIIS                CNVDIIS         .... on
   Start iteration      DIISMaxIt       ....    12
   Startup error        DIISStart       ....  0.200000
   # of expansion vecs  DIISMaxEq       ....     5
   Bias factor          DIISBfac        ....   1.050
   Max. coefficient     DIISMaxC        ....  10.000
 MO-DIIS                CNVKDIIS        .... off
 Trust-Rad. Augm. Hess. CNVTRAH         .... auto
   Auto Start mean grad. ratio tolernc. ....  1.125000
   Auto Start start iteration           ....    50
   Auto Start num. interpolation iter.  ....    10
   Max. Number of Micro iterations      ....    24
   Max. Number of Macro iterations      .... Maxiter - #DIIS iter
   Number of Davidson start vectors     ....     2
   Converg. threshold    (grad. norm)   ....   2.000e-06
   Grad. Scal. Fac. for Micro threshold ....   0.100
   Minimum threshold for Micro iter.    ....   1.000e-02
   NR start threshold (gradient norm)   ....   1.000e-04
   Initial trust radius                 ....   0.400
   Minimum AH scaling param. (alpha)    ....   1.000
   Maximum AH scaling param. (alpha)    .... 1000.000
   Quad. conv. algorithm                .... NR
   White noise on init. David. guess    .... on
   Maximum white noise                  ....   0.010
   Pseudo random numbers                .... off
   Inactive MOs                         .... canonical
   Orbital update algorithm             .... Taylor
   Preconditioner                       .... Diag
   Full preconditioner red. dimension   ....   250
 SOSCF                 CNVSOSCF           .... on
   Start iteration     SOSCFMaxIt         ....   150
   Startup grad/error  SOSCFStart         ....  0.003300
   Hessian update      SOSCFHessUp        .... L-BFGS
   Autom. constraints  SOSCFAutoConstrain .... off
 Level Shifting         CNVShift        .... on
   Level shift para.    LevelShift      ....    0.2500
   Turn off err/grad.   ShiftErr        ....    0.0010
 Zerner damping         CNVZerner       .... off
 Static damping         CNVDamp         .... on
   Fraction old density DampFac         ....    0.7000
   Max. Damping (<1)    DampMax         ....    0.9800
   Min. Damping (>=0)   DampMin         ....    0.0000
   Turn off err/grad.   DampErr         ....    0.1000

SCF Procedure:
 Maximum # iterations   MaxIter         ....   125
 SCF integral mode      SCFMode         .... Direct
   Integral package                     .... SHARK and LIBINT hybrid scheme
 Reset frequency        DirectResetFreq ....    20
 Integral Threshold     Thresh          ....  1.000e-12 Eh
 Primitive CutOff       TCut            ....  1.000e-14 Eh

Convergence Tolerance:
 Convergence Check Mode ConvCheckMode   .... Total+1el-Energy
 Convergence forced     ConvForced      .... 0
 Energy Change          TolE            ....  1.000e-09 Eh
 1-El. energy change                    ....  1.000e-06 Eh
 Orbital Gradient       TolG            ....  2.000e-06
 Orbital Rotation angle TolX            ....  2.000e-06
 DIIS Error             TolErr          ....  1.000e-08

------------------------------
INITIAL GUESS: MODEL POTENTIAL
------------------------------
Loading Hartree-Fock densities                     ... done
Calculating cut-offs                               ... done
Initializing the effective Hamiltonian             ... done
Setting up the integral package (SHARK)            ... done
Starting the Coulomb interaction                   ... done (   0.0 sec)
Making the grid                                    ... done (   0.0 sec)
Mapping shells                                     ... done
Starting the XC term evaluation                    ... done (   0.0 sec)
  promolecular density results
     # of electrons  =     36.998545452
     EX              =    -27.583266727
     EC              =      0.012516501
     EX+EC           =    -27.570750226
Transforming the Hamiltonian                       ... done (   0.0 sec)
Diagonalizing the Hamiltonian                      ... done (   0.0 sec)
Back transforming the eigenvectors                 ... done (   0.0 sec)
Now organizing SCF variables                       ... done
                      ------------------
                      INITIAL GUESS DONE (   0.1 sec)
                      ------------------
             **** ENERGY FILE WAS UPDATED (opt.en.tmp) ****
Finished Guess after   1.6 sec
Maximum memory used throughout the entire GUESS-calculation: 14.4 MB


           ************************************************************
           *        Program running with 8 parallel MPI-processes     *
           *              working on a common directory               *
           ************************************************************

-------------------------------------------------------------------------------------------
                                      ORCA LEAN-SCF
                              memory conserving SCF solver
-------------------------------------------------------------------------------------------

----------------------------------------D-I-I-S--------------------------------------------
Iteration    Energy (Eh)           Delta-E    RMSDP     MaxDP     DIISErr   Damp  Time(sec)
-------------------------------------------------------------------------------------------
               ***  Starting incremental Fock matrix formation  ***
    1    -193.7521917407522096     0.00e+00  1.27e-03  1.27e-02  6.59e-02  0.700   1.4
    2    -193.8119231590129630    -5.97e-02  1.01e-03  8.51e-03  4.10e-02  0.700   0.9
                               ***Turning on AO-DIIS***
    3    -193.8449216424384645    -3.30e-02  5.84e-04  4.53e-03  2.27e-02  0.700   0.9
    4    -193.8653082839954891    -2.04e-02  1.44e-03  1.37e-02  1.56e-02  0.000   0.9
                              *** Initializing SOSCF ***
---------------------------------------S-O-S-C-F--------------------------------------
Iteration    Energy (Eh)           Delta-E    RMSDP     MaxDP     MaxGrad    Time(sec)
--------------------------------------------------------------------------------------
    5    -193.9109774270910407    -4.57e-02  2.76e-04  4.71e-03  2.86e-03     0.9
               *** Restarting incremental Fock matrix formation ***
    6    -193.9114217718985742    -4.44e-04  2.05e-04  3.57e-03  4.28e-03     1.5
    7    -193.9116093203771811    -1.88e-04  1.56e-04  2.86e-03  1.84e-03     1.3
    8    -193.9116664089452797    -5.71e-05  2.65e-05  3.49e-04  2.35e-04     1.3
    9    -193.9116682078037002    -1.80e-06  1.95e-05  2.47e-04  1.51e-04     1.2
   10    -193.9116689040605479    -6.96e-07  4.09e-06  3.92e-05  3.40e-05     1.2
   11    -193.9116689450298168    -4.10e-08  2.63e-06  2.64e-05  1.02e-05     1.1
   12    -193.9116689526726987    -7.64e-09  6.67e-07  6.94e-06  5.11e-06     1.1
   13    -193.9116689535313753    -8.59e-10  3.08e-07  3.53e-06  2.18e-06     1.0
                 **** Energy Check signals convergence ****

               *****************************************************
               *                     SUCCESS                       *
               *           SCF CONVERGED AFTER  13 CYCLES          *
               *****************************************************

Recomputing exchange energy using gridx3       ... done (    1.881 sec)
Old exchange energy                            :    -19.620133100 Eh
New exchange energy                            :    -19.620135228 Eh
Exchange energy change after final integration :     -0.000002127 Eh
Total energy after final integration           :   -193.911671081 Eh
             **** ENERGY FILE WAS UPDATED (opt.en.tmp) ****

----------------
TOTAL SCF ENERGY
----------------

Total Energy       :       -193.91167108118873 Eh           -5276.60483 eV

Components:
Nuclear Repulsion  :        162.30993538844979 Eh            4416.67788 eV
Electronic Energy  :       -356.22160434222371 Eh           -9693.28265 eV
One Electron Energy:       -581.66414758183544 Eh          -15827.88613 eV
Two Electron Energy:        225.44254323961175 Eh            6134.60348 eV

Virial components:
Potential Energy   :       -387.21914027072023 Eh          -10536.76849 eV
Kinetic Energy     :        193.30746918953150 Eh            5260.16366 eV
Virial Ratio       :          2.00312560034121

DFT components:
N(Alpha)           :       19.000002059073 electrons
N(Beta)            :       18.000002328734 electrons
N(Total)           :       37.000004387807 electrons
E(X)               :       -8.760851381499 Eh       
E(C)               :       -0.553710652700 Eh       
E(XC)              :       -9.314562034199 Eh       

---------------
SCF CONVERGENCE
---------------

  Last Energy change         ...    8.5868e-10  Tolerance :   1.0000e-09
  Last MAX-Density change    ...    3.5251e-06  Tolerance :   1.0000e-08
  Last RMS-Density change    ...    3.0842e-07  Tolerance :   1.0000e-09
  Last DIIS Error            ...    2.8599e-03  Tolerance :   1.0000e-08
  Last Orbital Gradient      ...    2.1814e-06  Tolerance :   2.0000e-06
  Last Orbital Rotation      ...    5.6485e-06  Tolerance :   2.0000e-06


----------------------
UHF SPIN CONTAMINATION
----------------------

Warning: in a DFT calculation there is little theoretical justification to 
         calculate <S**2> as in Hartree-Fock theory. We will do it anyways
         but you should keep in mind that the values have only limited relevance

Expectation value of <S**2>     :     0.757780
Ideal value S*(S+1) for S=0.5   :     0.750000
Deviation                       :     0.007780

----------------
ORBITAL ENERGIES
----------------
                 SPIN UP ORBITALS
  NO   OCC          E(Eh)            E(eV) 
   0   1.0000     -10.828503      -294.6585 
   1   1.0000     -10.813218      -294.2426 
   2   1.0000     -10.813201      -294.2422 
   3   1.0000     -10.810095      -294.1576 
   4   1.0000     -10.808697      -294.1196 
   5   1.0000      -1.026831       -27.9415 
   6   1.0000      -0.867260       -23.5993 
   7   1.0000      -0.866551       -23.5800 
   8   1.0000      -0.697750       -18.9867 
   9   1.0000      -0.654456       -17.8087 
  10   1.0000      -0.611477       -16.6391 
  11   1.0000      -0.562746       -15.3131 
  12   1.0000      -0.501386       -13.6434 
  13   1.0000      -0.480160       -13.0658 
  14   1.0000      -0.443538       -12.0693 
  15   1.0000      -0.442359       -12.0372 
  16   1.0000      -0.433466       -11.7952 
  17   1.0000      -0.332482        -9.0473 
  18   1.0000      -0.293406        -7.9840 
  19   0.0000       0.102288         2.7834 
  20   0.0000       0.106820         2.9067 
  21   0.0000       0.138891         3.7794 
  22   0.0000       0.146902         3.9974 
  23   0.0000       0.159030         4.3274 
  24   0.0000       0.168275         4.5790 
  25   0.0000       0.173407         4.7187 
  26   0.0000       0.188483         5.1289 
  27   0.0000       0.217817         5.9271 
  28   0.0000       0.245562         6.6821 
  29   0.0000       0.247955         6.7472 

                 SPIN DOWN ORBITALS
  NO   OCC          E(Eh)            E(eV) 
   0   1.0000     -10.814474      -294.2768 
   1   1.0000     -10.814469      -294.2766 
   2   1.0000     -10.810080      -294.1572 
   3   1.0000     -10.808679      -294.1191 
   4   1.0000     -10.807006      -294.0736 
   5   1.0000      -1.016124       -27.6501 
   6   1.0000      -0.865660       -23.5558 
   7   1.0000      -0.843734       -22.9592 
   8   1.0000      -0.668438       -18.1891 
   9   1.0000      -0.653060       -17.7707 
  10   1.0000      -0.606295       -16.4981 
  11   1.0000      -0.537107       -14.6154 
  12   1.0000      -0.491574       -13.3764 
  13   1.0000      -0.476497       -12.9661 
  14   1.0000      -0.439992       -11.9728 
  15   1.0000      -0.435481       -11.8500 
  16   1.0000      -0.424361       -11.5475 
  17   1.0000      -0.311505        -8.4765 
  18   0.0000       0.053135         1.4459 
  19   0.0000       0.103184         2.8078 
  20   0.0000       0.109976         2.9926 
  21   0.0000       0.140370         3.8197 
  22   0.0000       0.149749         4.0749 
  23   0.0000       0.163318         4.4441 
  24   0.0000       0.172978         4.7070 
  25   0.0000       0.173709         4.7269 
  26   0.0000       0.189737         5.1630 
  27   0.0000       0.219648         5.9769 
  28   0.0000       0.247028         6.7220 
*Only the first 10 virtual orbitals were printed.

                    ********************************
                    * MULLIKEN POPULATION ANALYSIS *
                    ********************************

--------------------------------------------
MULLIKEN ATOMIC CHARGES AND SPIN POPULATIONS
--------------------------------------------
   0 C :   -0.159034    0.005816
   1 C :   -0.159069    0.005817
   2 H :    0.103687   -0.000256
   3 C :   -0.059900   -0.098244
   4 H :    0.103694   -0.000256
   5 C :   -0.126306    1.083158
   6 H :    0.072854    0.029203
   7 H :    0.072877    0.042812
   8 C :   -0.059922   -0.098230
   9 H :    0.065393   -0.041822
  10 H :    0.072855    0.029193
  11 H :    0.072870    0.042810
Sum of atomic charges         :    0.0000000
Sum of atomic spin populations:    1.0000000

-----------------------------------------------------
MULLIKEN REDUCED ORBITAL CHARGES AND SPIN POPULATIONS
-----------------------------------------------------
CHARGE
  0 C s       :     3.166831  s :     3.166831
      pz      :     0.949900  p :     2.875491
      px      :     0.962401
      py      :     0.963190
      dz2     :     0.011590  d :     0.108832
      dxz     :     0.009599
      dyz     :     0.032669
      dx2y2   :     0.019830
      dxy     :     0.035145
      f0      :     0.000981  f :     0.007880
      f+1     :     0.000904
      f-1     :     0.000545
      f+2     :     0.001819
      f-2     :     0.001005
      f+3     :     0.001841
      f-3     :     0.000786

  1 C s       :     3.166841  s :     3.166841
      pz      :     0.949940  p :     2.875516
      px      :     0.962335
      py      :     0.963241
      dz2     :     0.011572  d :     0.108833
      dxz     :     0.009602
      dyz     :     0.032695
      dx2y2   :     0.019850
      dxy     :     0.035114
      f0      :     0.000980  f :     0.007879
      f+1     :     0.000905
      f-1     :     0.000544
      f+2     :     0.001819
      f-2     :     0.001005
      f+3     :     0.001840
      f-3     :     0.000786

  2 H s       :     0.857045  s :     0.857045
      pz      :     0.013222  p :     0.037313
      px      :     0.013739
      py      :     0.010352
      dz2     :     0.000345  d :     0.001955
      dxz     :     0.000378
      dyz     :     0.000353
      dx2y2   :     0.000509
      dxy     :     0.000371

  3 C s       :     3.066405  s :     3.066405
      pz      :     0.971150  p :     2.873167
      px      :     0.930995
      py      :     0.971022
      dz2     :     0.019445  d :     0.114156
      dxz     :     0.023558
      dyz     :     0.024659
      dx2y2   :     0.015487
      dxy     :     0.031008
      f0      :     0.000518  f :     0.006172
      f+1     :     0.000919
      f-1     :     0.000792
      f+2     :     0.000674
      f-2     :     0.001349
      f+3     :     0.000946
      f-3     :     0.000974

  4 H s       :     0.857039  s :     0.857039
      pz      :     0.013227  p :     0.037313
      px      :     0.013727
      py      :     0.010359
      dz2     :     0.000345  d :     0.001955
      dxz     :     0.000377
      dyz     :     0.000353
      dx2y2   :     0.000509
      dxy     :     0.000370

  5 C s       :     3.260104  s :     3.260104
      pz      :     0.974189  p :     2.777240
      px      :     0.926547
      py      :     0.876503
      dz2     :     0.021264  d :     0.082972
      dxz     :     0.009391
      dyz     :     0.013628
      dx2y2   :     0.016578
      dxy     :     0.022112
      f0      :     0.000660  f :     0.005991
      f+1     :     0.000719
      f-1     :     0.000615
      f+2     :     0.000438
      f-2     :     0.001126
      f+3     :     0.001190
      f-3     :     0.001244

  6 H s       :     0.884490  s :     0.884490
      pz      :     0.010876  p :     0.040545
      px      :     0.012512
      py      :     0.017157
      dz2     :     0.000329  d :     0.002111
      dxz     :     0.000315
      dyz     :     0.000405
      dx2y2   :     0.000605
      dxy     :     0.000457

  7 H s       :     0.884936  s :     0.884936
      pz      :     0.016685  p :     0.040090
      px      :     0.011002
      py      :     0.012404
      dz2     :     0.000615  d :     0.002096
      dxz     :     0.000473
      dyz     :     0.000501
      dx2y2   :     0.000232
      dxy     :     0.000275

  8 C s       :     3.066432  s :     3.066432
      pz      :     0.971144  p :     2.873166
      px      :     0.930892
      py      :     0.971130
      dz2     :     0.019479  d :     0.114152
      dxz     :     0.023570
      dyz     :     0.024603
      dx2y2   :     0.015509
      dxy     :     0.030990
      f0      :     0.000519  f :     0.006171
      f+1     :     0.000920
      f-1     :     0.000792
      f+2     :     0.000673
      f-2     :     0.001348
      f+3     :     0.000947
      f-3     :     0.000973

  9 H s       :     0.889997  s :     0.889997
      pz      :     0.021493  p :     0.042455
      px      :     0.011501
      py      :     0.009461
      dz2     :     0.000611  d :     0.002155
      dxz     :     0.000600
      dyz     :     0.000663
      dx2y2   :     0.000108
      dxy     :     0.000174

 10 H s       :     0.884488  s :     0.884488
      pz      :     0.010870  p :     0.040545
      px      :     0.012485
      py      :     0.017190
      dz2     :     0.000329  d :     0.002111
      dxz     :     0.000314
      dyz     :     0.000407
      dx2y2   :     0.000605
      dxy     :     0.000457

 11 H s       :     0.884945  s :     0.884945
      pz      :     0.016695  p :     0.040088
      px      :     0.011012
      py      :     0.012382
      dz2     :     0.000615  d :     0.002096
      dxz     :     0.000473
      dyz     :     0.000501
      dx2y2   :     0.000231
      dxy     :     0.000275


SPIN
  0 C s       :     0.002356  s :     0.002356
      pz      :     0.000443  p :     0.003669
      px      :     0.002605
      py      :     0.000620
      dz2     :    -0.000077  d :    -0.000191
      dxz     :     0.000122
      dyz     :     0.000238
      dx2y2   :    -0.000167
      dxy     :    -0.000306
      f0      :    -0.000007  f :    -0.000018
      f+1     :    -0.000000
      f-1     :     0.000016
      f+2     :    -0.000003
      f-2     :    -0.000002
      f+3     :    -0.000024
      f-3     :     0.000002

  1 C s       :     0.002356  s :     0.002356
      pz      :     0.000443  p :     0.003669
      px      :     0.002610
      py      :     0.000616
      dz2     :    -0.000077  d :    -0.000191
      dxz     :     0.000120
      dyz     :     0.000239
      dx2y2   :    -0.000167
      dxy     :    -0.000305
      f0      :    -0.000007  f :    -0.000018
      f+1     :    -0.000000
      f-1     :     0.000016
      f+2     :    -0.000003
      f-2     :    -0.000002
      f+3     :    -0.000024
      f-3     :     0.000002

  2 H s       :    -0.000271  s :    -0.000271
      pz      :    -0.000039  p :     0.000015
      px      :     0.000075
      py      :    -0.000021
      dz2     :     0.000000  d :    -0.000000
      dxz     :     0.000001
      dyz     :    -0.000002
      dx2y2   :     0.000001
      dxy     :    -0.000000

  3 C s       :    -0.026535  s :    -0.026535
      pz      :    -0.026542  p :    -0.089433
      px      :    -0.031178
      py      :    -0.031713
      dz2     :    -0.000620  d :     0.016835
      dxz     :     0.000917
      dyz     :     0.008097
      dx2y2   :     0.003467
      dxy     :     0.004974
      f0      :     0.000060  f :     0.000888
      f+1     :     0.000128
      f-1     :     0.000096
      f+2     :     0.000117
      f-2     :     0.000148
      f+3     :     0.000022
      f-3     :     0.000317

  4 H s       :    -0.000271  s :    -0.000271
      pz      :    -0.000039  p :     0.000015
      px      :     0.000075
      py      :    -0.000021
      dz2     :     0.000000  d :    -0.000000
      dxz     :     0.000001
      dyz     :    -0.000002
      dx2y2   :     0.000001
      dxy     :    -0.000000

  5 C s       :     0.148775  s :     0.148775
      pz      :     0.358085  p :     0.934042
      px      :     0.518804
      py      :     0.057153
      dz2     :    -0.000377  d :     0.001291
      dxz     :    -0.000899
      dyz     :     0.001664
      dx2y2   :     0.001088
      dxy     :    -0.000185
      f0      :     0.000022  f :    -0.000950
      f+1     :    -0.000369
      f-1     :    -0.000070
      f+2     :    -0.000024
      f-2     :    -0.000309
      f+3     :    -0.000247
      f-3     :     0.000048

  6 H s       :     0.028784  s :     0.028784
      pz      :     0.000244  p :     0.000393
      px      :    -0.000010
      py      :     0.000159
      dz2     :    -0.000002  d :     0.000025
      dxz     :    -0.000003
      dyz     :     0.000011
      dx2y2   :    -0.000008
      dxy     :     0.000028

  7 H s       :     0.042582  s :     0.042582
      pz      :     0.000397  p :     0.000210
      px      :     0.000043
      py      :    -0.000231
      dz2     :     0.000030  d :     0.000020
      dxz     :    -0.000004
      dyz     :     0.000003
      dx2y2   :    -0.000007
      dxy     :    -0.000003

  8 C s       :    -0.026530  s :    -0.026530
      pz      :    -0.026527  p :    -0.089421
      px      :    -0.031229
      py      :    -0.031665
      dz2     :    -0.000624  d :     0.016834
      dxz     :     0.000932
      dyz     :     0.008078
      dx2y2   :     0.003511
      dxy     :     0.004936
      f0      :     0.000061  f :     0.000888
      f+1     :     0.000128
      f-1     :     0.000095
      f+2     :     0.000116
      f-2     :     0.000149
      f+3     :     0.000023
      f-3     :     0.000316

  9 H s       :    -0.050805  s :    -0.050805
      pz      :     0.001959  p :     0.008289
      px      :     0.006417
      py      :    -0.000087
      dz2     :     0.000224  d :     0.000695
      dxz     :     0.000339
      dyz     :     0.000028
      dx2y2   :     0.000095
      dxy     :     0.000008

 10 H s       :     0.028775  s :     0.028775
      pz      :     0.000244  p :     0.000393
      px      :    -0.000011
      py      :     0.000161
      dz2     :    -0.000002  d :     0.000025
      dxz     :    -0.000003
      dyz     :     0.000011
      dx2y2   :    -0.000008
      dxy     :     0.000027

 11 H s       :     0.042580  s :     0.042580
      pz      :     0.000397  p :     0.000210
      px      :     0.000043
      py      :    -0.000230
      dz2     :     0.000030  d :     0.000020
      dxz     :    -0.000004
      dyz     :     0.000003
      dx2y2   :    -0.000007
      dxy     :    -0.000003



                     *******************************
                     * LOEWDIN POPULATION ANALYSIS *
                     *******************************

-------------------------------------------
LOEWDIN ATOMIC CHARGES AND SPIN POPULATIONS
-------------------------------------------
   0 C :   -0.015554   -0.000864
   1 C :   -0.015551   -0.000864
   2 H :    0.001982   -0.000460
   3 C :   -0.044447    0.045289
   4 H :    0.001984   -0.000460
   5 C :    0.073276    0.795164
   6 H :    0.014329    0.013136
   7 H :    0.018787    0.023673
   8 C :   -0.044429    0.045274
   9 H :   -0.023487    0.043306
  10 H :    0.014324    0.013130
  11 H :    0.018786    0.023674

----------------------------------------------------
LOEWDIN REDUCED ORBITAL CHARGES AND SPIN POPULATIONS
----------------------------------------------------
CHARGE
  0 C s       :     2.735812  s :     2.735812
      pz      :     0.896416  p :     2.843285
      px      :     0.905951
      py      :     1.040918
      dz2     :     0.045494  d :     0.393371
      dxz     :     0.046418
      dyz     :     0.106942
      dx2y2   :     0.078344
      dxy     :     0.116172
      f0      :     0.005774  f :     0.043087
      f+1     :     0.004068
      f-1     :     0.004217
      f+2     :     0.008559
      f-2     :     0.003728
      f+3     :     0.010727
      f-3     :     0.006014

  1 C s       :     2.735813  s :     2.735813
      pz      :     0.896460  p :     2.843289
      px      :     0.905892
      py      :     1.040936
      dz2     :     0.045437  d :     0.393362
      dxz     :     0.046413
      dyz     :     0.107018
      dx2y2   :     0.078392
      dxy     :     0.116102
      f0      :     0.005770  f :     0.043086
      f+1     :     0.004074
      f-1     :     0.004213
      f+2     :     0.008558
      f-2     :     0.003730
      f+3     :     0.010722
      f-3     :     0.006019

  2 H s       :     0.819243  s :     0.819243
      pz      :     0.051289  p :     0.151347
      px      :     0.054336
      py      :     0.045723
      dz2     :     0.004793  d :     0.027428
      dxz     :     0.005613
      dyz     :     0.005268
      dx2y2   :     0.005984
      dxy     :     0.005770

  3 C s       :     2.693012  s :     2.693012
      pz      :     0.975394  p :     2.895906
      px      :     0.962824
      py      :     0.957688
      dz2     :     0.067753  d :     0.412236
      dxz     :     0.085847
      dyz     :     0.084700
      dx2y2   :     0.059836
      dxy     :     0.114100
      f0      :     0.004815  f :     0.043293
      f+1     :     0.005594
      f-1     :     0.006244
      f+2     :     0.005290
      f-2     :     0.006703
      f+3     :     0.007244
      f-3     :     0.007402

  4 H s       :     0.819243  s :     0.819243
      pz      :     0.051320  p :     0.151345
      px      :     0.054274
      py      :     0.045751
      dz2     :     0.004801  d :     0.027427
      dxz     :     0.005606
      dyz     :     0.005281
      dx2y2   :     0.005975
      dxy     :     0.005765

  5 C s       :     2.798154  s :     2.798154
      pz      :     0.937774  p :     2.766899
      px      :     0.883324
      py      :     0.945800
      dz2     :     0.064127  d :     0.325788
      dxz     :     0.050227
      dyz     :     0.058757
      dx2y2   :     0.069275
      dxy     :     0.083402
      f0      :     0.004473  f :     0.035883
      f+1     :     0.002757
      f-1     :     0.004260
      f+2     :     0.002999
      f-2     :     0.006631
      f+3     :     0.005776
      f-3     :     0.008987

  6 H s       :     0.808422  s :     0.808422
      pz      :     0.044674  p :     0.148662
      px      :     0.048955
      py      :     0.055034
      dz2     :     0.004222  d :     0.028587
      dxz     :     0.004556
      dyz     :     0.005600
      dx2y2   :     0.007342
      dxy     :     0.006867

  7 H s       :     0.803190  s :     0.803190
      pz      :     0.059559  p :     0.149548
      px      :     0.045711
      py      :     0.044279
      dz2     :     0.007999  d :     0.028475
      dxz     :     0.007141
      dyz     :     0.006840
      dx2y2   :     0.002883
      dxy     :     0.003612

  8 C s       :     2.693026  s :     2.693026
      pz      :     0.975400  p :     2.895905
      px      :     0.962788
      py      :     0.957717
      dz2     :     0.067868  d :     0.412210
      dxz     :     0.085888
      dyz     :     0.084509
      dx2y2   :     0.059905
      dxy     :     0.114041
      f0      :     0.004814  f :     0.043288
      f+1     :     0.005599
      f-1     :     0.006240
      f+2     :     0.005297
      f-2     :     0.006698
      f+3     :     0.007249
      f-3     :     0.007390

  9 H s       :     0.830842  s :     0.830842
      pz      :     0.079349  p :     0.163278
      px      :     0.044979
      py      :     0.038950
      dz2     :     0.010973  d :     0.029367
      dxz     :     0.008198
      dyz     :     0.007528
      dx2y2   :     0.001063
      dxy     :     0.001605

 10 H s       :     0.808432  s :     0.808432
      pz      :     0.044655  p :     0.148658
      px      :     0.048893
      py      :     0.055109
      dz2     :     0.004217  d :     0.028586
      dxz     :     0.004537
      dyz     :     0.005615
      dx2y2   :     0.007343
      dxy     :     0.006874

 11 H s       :     0.803189  s :     0.803189
      pz      :     0.059581  p :     0.149551
      px      :     0.045735
      py      :     0.044234
      dz2     :     0.008004  d :     0.028474
      dxz     :     0.007148
      dyz     :     0.006841
      dx2y2   :     0.002873
      dxy     :     0.003609


SPIN
  0 C s       :     0.000308  s :     0.000308
      pz      :     0.000286  p :     0.000668
      px      :     0.000252
      py      :     0.000129
      dz2     :    -0.000698  d :    -0.001648
      dxz     :    -0.000018
      dyz     :     0.000244
      dx2y2   :    -0.000990
      dxy     :    -0.000186
      f0      :    -0.000047  f :    -0.000192
      f+1     :    -0.000056
      f-1     :     0.000059
      f+2     :    -0.000035
      f-2     :    -0.000011
      f+3     :    -0.000111
      f-3     :     0.000009

  1 C s       :     0.000309  s :     0.000309
      pz      :     0.000286  p :     0.000668
      px      :     0.000253
      py      :     0.000129
      dz2     :    -0.000698  d :    -0.001648
      dxz     :    -0.000021
      dyz     :     0.000246
      dx2y2   :    -0.000988
      dxy     :    -0.000188
      f0      :    -0.000047  f :    -0.000192
      f+1     :    -0.000056
      f-1     :     0.000059
      f+2     :    -0.000035
      f-2     :    -0.000011
      f+3     :    -0.000111
      f-3     :     0.000009

  2 H s       :    -0.000282  s :    -0.000282
      pz      :    -0.000088  p :    -0.000169
      px      :    -0.000092
      py      :     0.000010
      dz2     :    -0.000004  d :    -0.000008
      dxz     :     0.000005
      dyz     :    -0.000007
      dx2y2   :     0.000004
      dxy     :    -0.000007

  3 C s       :    -0.001749  s :    -0.001749
      pz      :    -0.006999  p :    -0.019555
      px      :    -0.002941
      py      :    -0.009615
      dz2     :     0.002525  d :     0.060837
      dxz     :     0.003517
      dyz     :     0.024404
      dx2y2   :     0.011116
      dxy     :     0.019274
      f0      :     0.000411  f :     0.005756
      f+1     :     0.000941
      f-1     :     0.000837
      f+2     :     0.000664
      f-2     :     0.000570
      f+3     :     0.000326
      f-3     :     0.002007

  4 H s       :    -0.000282  s :    -0.000282
      pz      :    -0.000088  p :    -0.000169
      px      :    -0.000092
      py      :     0.000010
      dz2     :    -0.000004  d :    -0.000008
      dxz     :     0.000005
      dyz     :    -0.000007
      dx2y2   :     0.000004
      dxy     :    -0.000007

  5 C s       :     0.069802  s :     0.069802
      pz      :     0.271373  p :     0.724986
      px      :     0.429586
      py      :     0.024026
      dz2     :    -0.003825  d :     0.000859
      dxz     :     0.004110
      dyz     :    -0.000332
      dx2y2   :     0.004832
      dxy     :    -0.003927
      f0      :     0.000126  f :    -0.000481
      f+1     :    -0.000421
      f-1     :    -0.000223
      f+2     :     0.000973
      f-2     :    -0.000464
      f+3     :    -0.000494
      f-3     :     0.000021

  6 H s       :     0.016093  s :     0.016093
      pz      :    -0.000228  p :    -0.002544
      px      :    -0.000740
      py      :    -0.001576
      dz2     :    -0.000063  d :    -0.000413
      dxz     :    -0.000045
      dyz     :    -0.000078
      dx2y2   :    -0.000262
      dxy     :     0.000035

  7 H s       :     0.022972  s :     0.022972
      pz      :    -0.000429  p :     0.001033
      px      :     0.001421
      py      :     0.000041
      dz2     :    -0.000051  d :    -0.000332
      dxz     :    -0.000079
      dyz     :    -0.000110
      dx2y2   :    -0.000037
      dxy     :    -0.000055

  8 C s       :    -0.001749  s :    -0.001749
      pz      :    -0.006990  p :    -0.019553
      px      :    -0.002953
      py      :    -0.009610
      dz2     :     0.002509  d :     0.060823
      dxz     :     0.003562
      dyz     :     0.024352
      dx2y2   :     0.011247
      dxy     :     0.019153
      f0      :     0.000413  f :     0.005754
      f+1     :     0.000943
      f-1     :     0.000829
      f+2     :     0.000659
      f-2     :     0.000575
      f+3     :     0.000329
      f-3     :     0.002005

  9 H s       :    -0.012828  s :    -0.012828
      pz      :     0.017180  p :     0.046954
      px      :     0.028771
      py      :     0.001003
      dz2     :     0.003283  d :     0.009180
      dxz     :     0.004598
      dyz     :     0.000365
      dx2y2   :     0.000880
      dxy     :     0.000055

 10 H s       :     0.016086  s :     0.016086
      pz      :    -0.000228  p :    -0.002544
      px      :    -0.000743
      py      :    -0.001573
      dz2     :    -0.000062  d :    -0.000413
      dxz     :    -0.000045
      dyz     :    -0.000078
      dx2y2   :    -0.000261
      dxy     :     0.000034

 11 H s       :     0.022971  s :     0.022971
      pz      :    -0.000428  p :     0.001034
      px      :     0.001426
      py      :     0.000037
      dz2     :    -0.000050  d :    -0.000332
      dxz     :    -0.000079
      dyz     :    -0.000111
      dx2y2   :    -0.000037
      dxy     :    -0.000055



                      *****************************
                      * MAYER POPULATION ANALYSIS *
                      *****************************

  NA   - Mulliken gross atomic population
  ZA   - Total nuclear charge
  QA   - Mulliken gross atomic charge
  VA   - Mayer's total valence
  BVA  - Mayer's bonded valence
  FA   - Mayer's free valence

  ATOM       NA         ZA         QA         VA         BVA        FA
  0 C      6.1590     6.0000    -0.1590     3.9205     3.9205     0.0000
  1 C      6.1591     6.0000    -0.1591     3.9205     3.9205     0.0000
  2 H      0.8963     1.0000     0.1037     1.0086     1.0086     0.0000
  3 C      6.0599     6.0000    -0.0599     3.9099     3.9046     0.0053
  4 H      0.8963     1.0000     0.1037     1.0086     1.0086     0.0000
  5 C      6.1263     6.0000    -0.1263     3.8992     3.0445     0.8547
  6 H      0.9271     1.0000     0.0729     1.0095     1.0086     0.0009
  7 H      0.9271     1.0000     0.0729     1.0073     1.0053     0.0020
  8 C      6.0599     6.0000    -0.0599     3.9099     3.9046     0.0053
  9 H      0.9346     1.0000     0.0654     1.0206     1.0169     0.0038
 10 H      0.9271     1.0000     0.0729     1.0095     1.0086     0.0009
 11 H      0.9271     1.0000     0.0729     1.0073     1.0053     0.0020

  Mayer bond orders larger than 0.100000
B(  0-C ,  1-C ) :   1.9427 B(  0-C ,  2-H ) :   0.9787 B(  0-C ,  8-C ) :   0.9740 
B(  1-C ,  3-C ) :   0.9740 B(  1-C ,  4-H ) :   0.9787 B(  3-C ,  5-C ) :   0.9786 
B(  3-C ,  6-H ) :   0.9955 B(  3-C ,  7-H ) :   0.9818 B(  5-C ,  8-C ) :   0.9785 
B(  5-C ,  9-H ) :   1.0231 B(  8-C , 10-H ) :   0.9955 B(  8-C , 11-H ) :   0.9817 


-------
TIMINGS
-------

Total SCF time: 0 days 0 hours 0 min 18 sec 

Total time                  ....      18.991 sec
Sum of individual times     ....      17.974 sec  ( 94.6%)

SCF preparation             ....       1.478 sec  (  7.8%)
Fock matrix formation       ....      15.805 sec  ( 83.2%)
  Startup                   ....       0.013 sec  (  0.1% of F)
  Split-RI-J                ....       0.496 sec  (  3.1% of F)
  Chain of spheres X        ....      12.209 sec  ( 77.2% of F)
  XC integration            ....       3.843 sec  ( 24.3% of F)
    XC Preparation          ....       0.000 sec  (  0.0% of XC)
    Basis function eval.    ....       0.633 sec  ( 16.5% of XC)
    Density eval.           ....       1.270 sec  ( 33.1% of XC)
    XC-Functional eval.     ....       0.101 sec  (  2.6% of XC)
    XC-Potential eval.      ....       1.538 sec  ( 40.0% of XC)
Diagonalization             ....       0.000 sec  (  0.0%)
Density matrix formation    ....       0.097 sec  (  0.5%)
Total Energy calculation    ....       0.032 sec  (  0.2%)
Population analysis         ....       0.028 sec  (  0.1%)
Orbital Transformation      ....       0.070 sec  (  0.4%)
Orbital Orthonormalization  ....       0.000 sec  (  0.0%)
DIIS solution               ....       0.214 sec  (  1.1%)
SOSCF solution              ....       0.247 sec  (  1.3%)
Finished LeanSCF after  19.0 sec

Maximum memory used throughout the entire LEANSCF-calculation: 22.5 MB


           ************************************************************
           *        Program running with 8 parallel MPI-processes     *
           *              working on a common directory               *
           ************************************************************

------------------------------------------------------------------------------
                                ORCA  MP2 
------------------------------------------------------------------------------

Freezing NCore=10 chemical core electrons

----------------------
RI-MP2 ENERGY+GRADIENT
----------------------
Dimension of the orbital basis            ...  253
Dimension of the AuxC basis               ...  590
Memory devoted to MP2                     ... 6000 MB   
Data format for matrix containers         ... DOUBLE
Compression type for matrix containers    ... UNCOMPRESSED
Scaling for aa/bb pairs                   ...   5.660e-02
Scaling for ab pairs                      ...   5.935e-01
Overall scaling of the MP2 energy         ...   1.000e+00

-----------------------
SHARK RI TRANSFORMATION
-----------------------

Number of basis functions                ...    253
Number of aux functions                  ...    590
Number of operators                      ...      2
Generation of IJK                        ... YES
Generation of IAK                        ... YES
Generation of ABK                        ... NO
Orbital Range Operator  0:    0-  18 to   19- 252

Orbital Range Operator  1:    0-  17 to   18- 252

Aux basis identifier                     ...   AUXC
Contraction scheme used                  ... SEGMENTED
Do orthogonalization                     ... YES
All operator combinations                ... NO
Transpose (ia|K)                         ... NO
Integral generator used                  ... LIBINT
Starting integral generation + trafo... 
Half trafo (segmented) done. Total time =  0.1 sec. integrals=  0.1 sec trafo=  0.0 sec
Integral generation and half transformation done (  0.1 sec)

Reading or making V^(-1/2)          ... done (  0.0 sec)
Sorting IJK integrals               ... done (  0.0 sec)
Sorting IAK integrals               ... done (  0.0 sec)
Sorting IJK integrals               ... done (  0.0 sec)
Sorting IAK integrals               ... done (  0.1 sec)

SHARK RI integral transformation done. Total time =  0.2 sec.

Opening buffers                              ... done
Frozen core precalculation                   ... done

Starting loop over batches of integrals:

Operator 0  - window                       ... (  5- 18)x( 19-252)
Operator 0  - Memory available             ...  6000 MB
Operator 0  - Memory needed per MO         ...   1.1 MB
Operator 0  - Number of orbitals per batch ... 2
Operator 0  - Number of batches            ... 1

OPERATOR  0   PASS   0:  MOs     5 ...    6 +    7 ...    8 +    9 ...   10 +   11 ...   12
                            +   13 ...   14 +   15 ...   16 +   17 ...   18
  Reading integrals       ... ok
Closing buffer GIPV ( 0.02 GB; CompressionRatio= 1.00)

Operator 1  - window                       ... (  5- 17)x( 18-252)
Operator 1  - Memory available             ...  6000 MB
Operator 1  - Memory needed per MO         ...   1.1 MB
Operator 1  - Number of orbitals per batch ... 2
Operator 1  - Number of batches            ... 1

OPERATOR  1   PASS   0:  MOs     5 ...    6 +    7 ...    8 +    9 ...   10 +   11 ...   12
                            +   13 ...   14 +   15 ...   16 +   17 ...   17
  Reading integrals       ... ok
Closing buffer GIPV ( 0.01 GB; CompressionRatio= 1.00)
Time spent in pair loops =     0.569 sec
Deleting buffers (Ka|jb) ...done

Spin-scaled correlation energy components}
 E2 for alpha/alpha pairs :     -0.006408792 Eh
 E2 for beta/beta   pairs :     -0.005630273 Eh
 E2 for alpha/beta  pairs :     -0.405194518 Eh


-----------------------------------------------
 RI-MP2 CORRELATION ENERGY:     -0.417233583 Eh
-----------------------------------------------


---------------------
MP2 DENSITY FORMATION
---------------------

Completing the external part of the density      ... done
Storing the unrelaxed density                    ... done

Re-sorting 3-index density container for op 0    ... done
Re-sorting 3-index density container for op 1    ... done
Computing external part of the Lagrangian        ... done
Calculating the xc-kernel                        ... done
Calculating G(D)                                 ... done
Completing the Lagrangian                        ... done
Solving the Z-vector equations                   ... Using XC Grid                  ... (opt.grid_cpscf.tmp) 
Recalculating density on grid  ... (opt.grho_cpscf0.tmp) done
Calculating the xc-kernel      ... (opt.fxc_cpscf0.tmp) done

-------------------
SHARK CP-SCF DRIVER
-------------------

Dimension of the orbital basis          ...    253
Dimension of the CPSCF-problem          ...   8676
Number of operators                     ...      2
Max. number of iterations               ...    128
[...]
     25      -0.035054  -0.063428  -0.049993   0.059707   0.047882   0.045955
     26      -0.118420   0.033177   0.014918  -0.010144  -0.003737  -0.009118
     27       0.077025  -0.000528  -0.000330  -0.009441   0.010504  -0.000169
     28      -0.000792  -0.524371  -0.000541   0.000303  -0.000192   0.006810
     29       0.073739   0.000039  -0.000509  -0.008539   0.010046  -0.000196
     30       0.312493  -0.044880   0.125379  -0.156007  -0.091726   0.347620
     31       0.121656  -0.099377   0.357430  -0.393097   0.078518  -0.280530
     32       0.318063  -0.046786  -0.290909   0.298953  -0.167279  -0.248328
     33       0.333200  -0.049913  -0.284548   0.291032  -0.171518  -0.223914
     34       0.121241  -0.099847   0.356712  -0.393189   0.078773  -0.271048
     35       0.295447  -0.043217   0.139173  -0.170751  -0.083304   0.348730
                 30         31         32         33         34         35    
      0       0.000799   0.000307  -0.000117  -0.035701   0.036115   0.003066
      1       0.000478  -0.000079   0.000060  -0.033420   0.042672   0.003229
      2       0.000747  -0.000452   0.000181  -0.033906   0.034294   0.002914
      3       0.000756   0.000357   0.000237   0.035592   0.036079   0.003003
      4      -0.000434  -0.000028   0.000043  -0.033410  -0.042745  -0.003184
      5       0.000718  -0.000279  -0.000304   0.033906   0.034383   0.002866
      6      -0.010422   0.000519   0.000046   0.419444  -0.415432  -0.031094
      7      -0.014583   0.000804  -0.000516   0.402774  -0.404436  -0.029798
      8      -0.009864   0.000870  -0.000803   0.398430  -0.394504  -0.029583
      9       0.010576   0.036454   0.050926  -0.000999  -0.001556   0.000570
     10       0.045844  -0.000344  -0.001486  -0.001208  -0.001868  -0.003146
     11       0.009222  -0.038439  -0.054175  -0.000894  -0.001491   0.000582
     12      -0.009934  -0.000479  -0.000122  -0.418119  -0.415071  -0.030428
     13       0.014219   0.000361  -0.000472   0.402840   0.405455   0.029212
     14      -0.009525  -0.000373   0.000824  -0.398318  -0.395500  -0.028956
     15      -0.001719  -0.000098  -0.000033  -0.000053   0.004130  -0.062496
     16      -0.000016   0.000016  -0.000019   0.000400   0.000006   0.000038
     17      -0.001617   0.000089   0.000014  -0.000051   0.003942  -0.059579
     18      -0.344789  -0.267613  -0.374651   0.006299   0.009733   0.004413
     19      -0.278093  -0.236697  -0.335628   0.003962   0.007921   0.005822
     20       0.246345   0.179551   0.253225  -0.002201  -0.003729  -0.004200
     21       0.224503  -0.167098  -0.245867  -0.001711  -0.003225  -0.003814
     22      -0.275331   0.240564   0.353441   0.003725   0.007976   0.005680
     23      -0.350722   0.278849   0.406307   0.006080   0.009962   0.004344
     24       0.009863   0.052031  -0.035208   0.000914  -0.001539   0.000603
     25      -0.045040   0.000003  -0.000848  -0.001265   0.001862   0.003161
     26       0.009525  -0.054741   0.037423   0.001026  -0.001497   0.000560
     27       0.010739  -0.001355  -0.000116   0.000591  -0.054961   0.719064
     28       0.000053   0.000019  -0.000190  -0.000679   0.000026  -0.000442
     29       0.010291   0.001480   0.000356   0.000568  -0.052409   0.685411
     30      -0.335090  -0.385433   0.260594  -0.005940   0.009564   0.004331
     31       0.271462   0.343764  -0.235563   0.003463  -0.007795  -0.005783
     32       0.239578   0.259564  -0.176627   0.001957  -0.003490  -0.004171
     33       0.223393  -0.239637   0.171806   0.002367  -0.003189  -0.004077
     34       0.272362  -0.343675   0.245737   0.004941  -0.008280  -0.005863
     35      -0.347663   0.398006  -0.282378  -0.007474   0.009984   0.004592


-----------
IR SPECTRUM
-----------

 Mode   freq       eps      Int      T**2         TX        TY        TZ
       cm**-1   L/(mol*cm) km/mol    a.u.
----------------------------------------------------------------------------
  6:    189.92   0.001505    7.60  0.002473  (-0.034322 -0.000466  0.035978)
  7:    308.02   0.005088   25.71  0.005154  (-0.049514  0.000008  0.051989)
  8:    389.38   0.000000    0.00  0.000000  (-0.000096  0.000324  0.000125)
  9:    684.11   0.007777   39.30  0.003548  ( 0.041089  0.000058 -0.043120)
 10:    743.78   0.000000    0.00  0.000000  ( 0.000338  0.000121  0.000086)
 11:    792.18   0.000005    0.03  0.000002  ( 0.000141  0.001417 -0.000150)
 12:    904.93   0.000000    0.00  0.000000  (-0.000083 -0.000070  0.000155)
 13:    928.02   0.001798    9.09  0.000605  (-0.000230 -0.024589  0.000175)
 14:    935.66   0.000199    1.01  0.000066  (-0.006189  0.000208 -0.005306)
 15:    950.65   0.002481   12.54  0.000815  (-0.019614  0.000552  0.020725)
 16:    970.69   0.000000    0.00  0.000000  ( 0.000078  0.000032 -0.000198)
 17:    975.89   0.000126    0.64  0.000040  (-0.004472 -0.000091 -0.004505)
 18:   1046.83   0.000105    0.53  0.000031  ( 0.000072  0.005592 -0.000006)
 19:   1132.35   0.000002    0.01  0.000001  (-0.000057 -0.000095  0.000720)
 20:   1140.26   0.000001    0.01  0.000000  ( 0.000426 -0.000033 -0.000347)
 21:   1145.95   0.000862    4.36  0.000235  (-0.010478 -0.000089  0.011183)
 22:   1294.80   0.000139    0.70  0.000033  (-0.000074 -0.005781 -0.000033)
 23:   1313.77   0.000018    0.09  0.000004  (-0.000023  0.002078 -0.000029)
 24:   1339.28   0.000275    1.39  0.000064  ( 0.005805 -0.000098  0.005516)
 25:   1404.16   0.000105    0.53  0.000023  (-0.000031 -0.004829 -0.000006)
 26:   1471.87   0.000700    3.54  0.000148  ( 0.000120  0.012179  0.000168)
 27:   1478.45   0.000119    0.60  0.000025  ( 0.003667 -0.000166  0.003426)
 28:   1669.85   0.000427    2.16  0.000080  ( 0.006472 -0.000034  0.006157)
 29:   2991.62   0.016766   84.73  0.001749  ( 0.000096  0.041820 -0.000157)
 30:   2993.23   0.000794    4.01  0.000083  ( 0.006717  0.000203  0.006137)
 31:   3005.25   0.008597   43.45  0.000893  ( 0.020571  0.000066 -0.021669)
 32:   3006.02   0.000293    1.48  0.000030  ( 0.003673 -0.001121 -0.003964)
 33:   3198.08   0.000928    4.69  0.000091  (-0.000052 -0.009516  0.000019)
 34:   3223.40   0.004202   21.23  0.000407  ( 0.014620 -0.000013  0.013893)
 35:   3240.59   0.002420   12.23  0.000233  (-0.011053  0.000022 -0.010529)

* The epsilon (eps) is given for a Dirac delta lineshape.
** The dipole moment derivative (T) already includes vibrational overlap.

The first frequency considered to be a vibration is 6
The total number of vibrations considered is 30


--------------------------
THERMOCHEMISTRY AT 298.15K
--------------------------

Temperature         ...   298.15 K
Pressure            ...     1.00 atm
Total Mass          ...    67.11 AMU
Quasi RRHO          ...     True
Cut-Off Frequency   ...     1.00 cm^-1

Throughout the following assumptions are being made:
  (1) The electronic state is orbitally nondegenerate
      but the spin degeneracy is treated
  (2) There are no thermally accessible electronically excited states
  (3) Hindered rotations indicated by low frequency modes are not
      treated as such but are treated as vibrations and this may
      cause some error
  (4) All equations used are the standard statistical mechanics
      equations for an ideal gas
  (5) All vibrations are strictly harmonic

freq.     189.92  E(vib)   ...       0.36 
freq.     308.02  E(vib)   ...       0.26 
freq.     389.38  E(vib)   ...       0.20 
freq.     684.11  E(vib)   ...       0.07 
freq.     743.78  E(vib)   ...       0.06 
freq.     792.18  E(vib)   ...       0.05 
freq.     904.93  E(vib)   ...       0.03 
freq.     928.02  E(vib)   ...       0.03 
freq.     935.66  E(vib)   ...       0.03 
freq.     950.65  E(vib)   ...       0.03 
freq.     970.69  E(vib)   ...       0.03 
freq.     975.89  E(vib)   ...       0.03 
freq.    1046.83  E(vib)   ...       0.02 
freq.    1132.35  E(vib)   ...       0.01 
freq.    1140.26  E(vib)   ...       0.01 
freq.    1145.95  E(vib)   ...       0.01 
freq.    1294.80  E(vib)   ...       0.01 
freq.    1313.77  E(vib)   ...       0.01 
freq.    1339.28  E(vib)   ...       0.01 
freq.    1404.16  E(vib)   ...       0.00 
freq.    1471.87  E(vib)   ...       0.00 
freq.    1478.45  E(vib)   ...       0.00 
freq.    1669.85  E(vib)   ...       0.00 
freq.    2991.62  E(vib)   ...       0.00 
freq.    2993.23  E(vib)   ...       0.00 
freq.    3005.25  E(vib)   ...       0.00 
freq.    3006.02  E(vib)   ...       0.00 
freq.    3198.08  E(vib)   ...       0.00 
freq.    3223.40  E(vib)   ...       0.00 
freq.    3240.59  E(vib)   ...       0.00 

------------
INNER ENERGY
------------

The inner energy is: U= E(el) + E(ZPE) + E(vib) + E(rot) + E(trans)
    E(el)   - is the total energy from the electronic structure calculation
              = E(kin-el) + E(nuc-el) + E(el-el) + E(nuc-nuc)
    E(ZPE)  - the the zero temperature vibrational energy from the frequency calculation
    E(vib)  - the the finite temperature correction to E(ZPE) due to population
              of excited vibrational states
    E(rot)  - is the rotational thermal energy
    E(trans)- is the translational thermal energy

Summary of contributions to the inner energy U:
Electronic energy                ...   -194.34326004 Eh
Zero point energy                ...      0.10221908 Eh      64.14 kcal/mol
Thermal vibrational correction   ...      0.00202489 Eh       1.27 kcal/mol
Thermal rotational correction    ...      0.00141627 Eh       0.89 kcal/mol
Thermal translational correction ...      0.00141627 Eh       0.89 kcal/mol
-----------------------------------------------------------------------
Total thermal energy                   -194.23618353 Eh


Summary of corrections to the electronic energy:
(perhaps to be used in another calculation)
Total thermal correction                  0.00485743 Eh       3.05 kcal/mol
Non-thermal (ZPE) correction              0.10221908 Eh      64.14 kcal/mol
-----------------------------------------------------------------------
Total correction                          0.10707651 Eh      67.19 kcal/mol


--------
ENTHALPY
--------

The enthalpy is H = U + kB*T
                kB is Boltzmann's constant
Total thermal energy              ...   -194.23618353 Eh 
Thermal Enthalpy correction       ...      0.00094421 Eh       0.59 kcal/mol
-----------------------------------------------------------------------
Total Enthalpy                    ...   -194.23523932 Eh


Note: Rotational entropy computed according to Herzberg 
Infrared and Raman Spectra, Chapter V,1, Van Nostrand Reinhold, 1945 
Point Group:  Cs, Symmetry Number:   1  
Rotational constants in cm-1:     0.265418     0.247522     0.134396 

Vibrational entropy computed according to the QRRHO of S. Grimme
Chem.Eur.J. 2012 18 9955 using a reference frequency of 100.0 cm-1


-------
ENTROPY
-------

The entropy contributions are T*S = T*(S(el)+S(vib)+S(rot)+S(trans))
     S(el)   - electronic entropy
     S(vib)  - vibrational entropy
     S(rot)  - rotational entropy
     S(trans)- translational entropy
The entropies will be listed as multiplied by the temperature to get
units of energy

Electronic entropy                ...      0.00065446 Eh      0.41 kcal/mol
Vibrational entropy               ...      0.00307725 Eh      1.93 kcal/mol
Rotational entropy                ...      0.01174364 Eh      7.37 kcal/mol
Translational entropy             ...      0.01830640 Eh     11.49 kcal/mol
-----------------------------------------------------------------------
Final entropy term                ...      0.03378175 Eh     21.20 kcal/mol

In case the symmetry of your molecule has not been determined correctly
or in case you have a reason to use a different symmetry number we print 
out the resulting rotational entropy values for sn=1,12:

 non-linear molecules -----------------------------------
|  sn= 1 | S(rot)=       0.01174364 Eh      7.37 kcal/mol|
|  sn= 2 | S(rot)=       0.01108918 Eh      6.96 kcal/mol|
|  sn= 3 | S(rot)=       0.01070635 Eh      6.72 kcal/mol|
|  sn= 4 | S(rot)=       0.01043473 Eh      6.55 kcal/mol|
|  sn= 5 | S(rot)=       0.01022404 Eh      6.42 kcal/mol|
|  sn= 6 | S(rot)=       0.01005190 Eh      6.31 kcal/mol|
|  sn= 7 | S(rot)=       0.00990635 Eh      6.22 kcal/mol|
|  sn= 8 | S(rot)=       0.00978027 Eh      6.14 kcal/mol|
|  sn= 9 | S(rot)=       0.00966906 Eh      6.07 kcal/mol|
|  sn=10 | S(rot)=       0.00956958 Eh      6.00 kcal/mol|
|  sn=11 | S(rot)=       0.00947959 Eh      5.95 kcal/mol|
|  sn=12 | S(rot)=       0.00939744 Eh      5.90 kcal/mol|
 linear molecules ---------------------------------------
|  Dinfh | S(rot)=       0.00722074 Eh      4.53 kcal/mol|
|  Cinfv | S(rot)=       0.00787520 Eh      4.94 kcal/mol|
 --------------------------------------------------------


-------------------
GIBBS FREE ENERGY
-------------------

The Gibbs free energy is G = H - T*S

Total enthalpy                    ...   -194.23523932 Eh 
Total entropy correction          ...     -0.03378175 Eh    -21.20 kcal/mol
-----------------------------------------------------------------------
Final Gibbs free energy         ...   -194.26902107 Eh

For completeness - the Gibbs free energy minus the electronic energy
G-E(el)                           ...      0.07423897 Eh     46.59 kcal/mol



--------------------------------
SUGGESTED CITATIONS FOR THIS RUN
--------------------------------

Below you find a list of papers that are relevant to this ORCA run
We neither can nor want to force you to cite these papers, but we appreciate if you do
You receive ORCA, which is the product of decades of hard work by many enthusiastic individuals, for free
The only thing we kindly ask in return is that you cite our papers,
We deeply appreciate it, if you show your appreciation for ORCA by not just citing the generic ORCA reference.

Please note that relegating all ORCA citations to the supporting information does *not* help us.
SI sections are not indexed - citations you put there will not count into any citation statistics
But we need these citations in order to attract the funding resources that allow us to do what we are doing

Therefore, if you are a happy ORCA user, please consider citing a few of the papers listed below in the main body of your paper

In addition to the list printed below, the program has created the file opt.bibtex that contains the list in bibtex format
You can import this file easily into all common literature databanks and citation aid programs

It goes without saying that in many instances, there are alternative algorithms to achieve similar
results as the ones you have gotten from ORCA. It is, of course, also the case that in some instances
ORCA just re-implements algorithms worked out by others. We are fully aware of that and we are also
fully appreciative of our colleagues work. Hence this citation list should not be read as indicating
that the listed papers, which are focused on our own work, are the only ones worth citing. It simply
meant to make it easier for users to cite ORCA specific papers. It is not a substitute for doing your
own literature research and citing the relevant literature in a scientifically appropriate manner.

List of essential papers. We consider these as the minimum necessary citations

  1. Neese, F.
     Software update: the ORCA program system, version 6.0
     WIRES Comput. Molec. Sci. 2025 15(1), e70019
     doi.org/10.1002/wcms.70019

List of papers to cite with high priority. The work reported in these papers was absolutely
necessary for this run to complete.
Our perspective: the developers of density functionals and basis sets usually get cited in chemistry papers
Good! But without the algorithms to do something with them, the functionals or basis sets would not do anything.
Hence, in our opinion, the algorithm design and method developments papers are equally worthy of getting cited

  1. Neese, F.
     An improvement of the resolution of the identity approximation for the formation of the Coulomb matrix
     J. Comp. Chem. 2003 24(14), 1740-1747
     doi.org/10.1002/jcc.10318
  2. Neese, F.; Schwabe, T.; Grimme, S.
     Analytic derivatives for perturbatively corrected 'double hybrid' density functionals: Theory, implementation, and applications
     J. Chem. Phys. 2007 126(12), Art. No. 124115
     doi.org/10.1063/1.2712433
  3. Neese, F.; Wennmohs, F.; Hansen, A.; Becker, U.
     Efficient, approximate and parallel Hartree-Fock and hybrid DFT calculations. A 'chain-of-spheres' algorithm for the Hartree-Fock exchange
     Chem. Phys. 2009 356(1-3), 98-109
     doi.org/10.1016/j.chemphys.2008.10.036
  4. Kossmann, S.; Neese, F.
     Efficient Structure Optimization with Second-Order Many-Body Perturbation Theory: The RIJCOSX-MP2 Method
     J. Theo. Comp. Chem. 2010 6 , 2325-2338
     doi.org/10.1021/ct100199k
  5. Caldeweyher, E.; Bannwarth, C.; Grimme, S.
     Extension of the D3 dispersion coefficient model
     J. Chem. Phys. 2017 147 , 034112
     doi.org/10.1063/1.4993215
  6. Caldeweyher, E.; Ehlert, S.; Hansen, A.; Neugebauer, H.; Spicher, S.; Bannwarth, C.; Grimme, S.
     A generally applicable atomic-charge dependent London dispersion correction
     J. Chem. Phys. 2019 150 , 154122
     doi.org/10.1063/1.5090222
  7. Helmich-Paris, B.; de Souza, B.; Neese, F.; Izsák, R.
     An improved chain of spheres for exchange algorithm
     J. Chem. Phys. 2021 155(10), 104109
     doi.org/10.1063/5.0058766
  8. Neese, F.
     The SHARK Integral Generation and Digestion System
     J. Comp. Chem. 2022 44(3), 381
     doi.org/10.1002/jcc.26942

List of suggested additional citations. These are papers that are important in the 'surrounding' of 
of this run, or papers that preceded the highly important papers. If you like your results we are grateful for a citation.

  1. Izsak, R.; Neese, F.
     An overlap fitted chain of spheres exchange method
     J. Chem. Phys. 2011 135 , 144105
     doi.org/10.1063/1.3646921
  2. Izsak, R.; Hansen, A.; Neese, F.
     The resolution of identity and chain of spheres approximations for the LPNO-CCSD singles Fock term
     Molec. Phys. 2012 110 , 2413-2417
     doi.org/10.1080/00268976.2012.687466
  3. Neese, F.
     The ORCA program system
     WIRES Comput. Molec. Sci. 2012 2(1), 73-78
     doi.org/10.1002/wcms.81
  4. Izsak, R.; Neese, F.; Klopper, W.
     Robust fitting techniques in the chain of spheres approximation to the Fock exchange: The role of the complementary space
     J. Chem. Phys. 2013 139 , 
     doi.org/10.1063/1.4819264
  5. Neese, F.
     Software update: the ORCA program system, version 4.0
     WIRES Comput. Molec. Sci. 2018 8(1), 1-6
     doi.org/10.1002/wcms.1327
  6. Neese, F.; Wennmohs, F.; Becker, U.; Riplinger, C.
     The ORCA quantum chemistry program package
     J. Chem. Phys. 2020 152(22), 224108
     doi.org/10.1063/5.0004608
  7. Neese, F.
     Software update: The ORCA program system—Version 5.0
     WIRES Comput. Molec. Sci. 2022 12(1), e1606
     doi.org/10.1002/wcms.1606

List of optional additional citations

  1. Neese, F.
     Approximate second-order SCF convergence for spin unrestricted wavefunctions
     Chem. Phys. Lett. 2000 325(1-3), 93-98
     doi.org/10.1016/s0009-2614(00)00662-x

Timings for individual modules:

Sum of individual times          ...     1991.999 sec (=  33.200 min)
Startup calculation              ...       36.225 sec (=   0.604 min)   1.8 %
SCF iterations                   ...      198.487 sec (=   3.308 min)  10.0 %
Property calculations            ...        1.832 sec (=   0.031 min)   0.1 %
MP2 module                       ...      211.376 sec (=   3.523 min)  10.6 %
Geometry relaxation              ...        0.021 sec (=   0.000 min)   0.0 %
Numerical frequency calculation  ...     1544.059 sec (=  25.734 min)  77.5 %
                             ****ORCA TERMINATED NORMALLY****
TOTAL RUN TIME: 0 days 0 hours 33 minutes 0 seconds 553 msec
