
                                 *****************
                                 * O   R   C   A *
                                 *****************

                                            #,                                       
                                            ###                                      
                                            ####                                     
                                            #####                                    
                                            ######                                   
                                           ########,                                 
                                     ,,################,,,,,                         
                               ,,#################################,,                 
                          ,,##########################################,,             
                       ,#########################################, ''#####,          
                    ,#############################################,,   '####,        
                  ,##################################################,,,,####,       
                ,###########''''           ''''###############################       
              ,#####''   ,,,,##########,,,,          '''####'''          '####       
            ,##' ,,,,###########################,,,                        '##       
           ' ,,###''''                  '''############,,,                           
         ,,##''                                '''############,,,,        ,,,,,,###''
      ,#''                                            '''#######################'''  
     '                                                          ''''####''''         
             ,#######,   #######,   ,#######,      ##                                
            ,#'     '#,  ##    ##  ,#'     '#,    #''#        ,####,    ,#,          
            ##       ##  ##   ,#'  ##            #'  '#       #'       ,# #          
            ##       ##  #######   ##           ,######,      #####,      #          
            '#,     ,#'  ##    ##  '#,     ,#' ,#      #,     #,   #      #          
             '#######'   ##     ##  '#######'  #'      '#     '####' #    #          



                #########################################################
                #                        -***-                          #
                #          Department of theory and spectroscopy        #
                #                                                       #
                #                      Frank Neese                      #
                #                                                       #
                #     Directorship, Architecture, Infrastructure        #
                #                    SHARK, DRIVERS                     #
                #        Core code/Algorithms in most modules           #
                #                                                       #
                #        Max Planck Institute fuer Kohlenforschung      #
                #                Kaiser Wilhelm Platz 1                 #
                #                 D-45470 Muelheim/Ruhr                 #
                #                      Germany                          #
                #                                                       #
                #                  All rights reserved                  #
                #                        -***-                          #
                #########################################################


                         Program Version 6.1.1  -  RELEASE   -
                                (GIT: $487d211c$)
                          ($2025-11-21 10:33:24 +0100$)


 With contributions from (in alphabetic order):
[Max-Planck-Institut fuer Kohlenforschung]                               
  Daniel Aravena         : Magnetic Suceptibility                        
  Michael Atanasov       : Ab Initio Ligand Field Theory (pilot matlab implementation)
  Alexander A. Auer      : GIAO ZORA, VPT2 properties, NMR spectrum      
  Ute Becker             : All parallelization in ORCA, NUMFREQ, NUMCALC 
  Giovanni Bistoni       : ED, misc. LED, open-shell LED, HFLD           
  Dmytro Bykov           : pre 5.0 version of the SCF Hessian            
  Marcos Casanova-Páez   : Triplet and SCS-CIS(D). UHF-(DLPNO)-IP/EA/STEOM-CCSD. UHF-CVS-IP/STEOM-CCSD   
  Vijay G. Chilkuri      : MRCI spin determinant printing, contributions to CSF-ICE 
  Pauline Colinet        : FMM embedding                                 
  Dipayan Datta          : RHF DLPNO-CCSD density                        
  Achintya Kumar Dutta   : EOM-CC, STEOM-CC                              
  Nicolas Foglia         : Exact transition moments, OPA infrastructure, MCD improvements    
  Dmitry Ganyushin       : Spin-Orbit,Spin-Spin,Magnetic field MRCI      
  Miquel Garcia-Rates    : C-PCM and meta-GGA Hessian, CCSD/C-PCM, Gaussian charge scheme 
  Tiago L. C. Gouveia    : GS-ROHF, GS-ROCIS                             
  Yang Guo               : DLPNO-NEVPT2, F12-NEVPT2, CIM, IAO-localization        
  Andreas Hansen         : Spin unrestricted coupled pair/coupled cluster methods 
  Ingolf Harden          : AUTO-CI MPn and infrastructure                
  Benjamin Helmich-Paris : MC-RPA, TRAH-(SCF,CASSCF), AVAS, COSX integrals, SCF dyn. polar., MC-PDFT, srDFT 
  Lee Huntington         : MR-EOM, pCC                                   
  Robert Izsak           : Overlap fitted RIJCOSX, COSX-SCS-MP3, EOM     
  Riya Kayal             : Wick's Theorem for AUTO-CI, AUTO-CI UHF-CCSDT 
  Emily Kempfer          : AUTO-CI RHF CISDT and CCSDT, approximate NEVPT4
  Christian Kollmar      : KDIIS, OOCD, Brueckner-CCSD(T), CCSD density, CASPT2, CASPT2-K, improved NEVPT2 
  Axel Koslowski         : Symmetry handling                             
  Simone Kossmann        : meta-GGA functionals, TD-DFT gradient, OOMP2, (MP2 Hessian; deprecated post 5.0) 
  Lucas Lang             : DCDCAS, Hyperfine gauge corrections, ICE-SOC+SSC
  Marvin Lechner         : AUTO-CI (C++ implementation), FIC-MRCC        
  Spencer Leger          : CASSCF response                               
  Dagmar Lenk            : GEPOL surface, SMD, ORCA-2-JSON               
  Dimitrios Liakos       : Extrapolation schemes; Compound Job, Property file
  Dimitrios Manganas     : Further ROCIS development; embedding schemes. LFT, Crystal Embedding 
  Dimitrios Pantazis     : SARC Basis sets                               
  Anastasios Papadopoulos: AUTO-CI, single reference methods and gradients 
  Taras Petrenko         : pre 6.0 DFT Hessian and TD-DFT gradient,  ECA, NRVS 
  Petra Pikulova         : Analytic Raman intensities                    
  Peter Pinski           : DLPNO-MP2, DLPNO-MP2 Gradient                 
  Shashank Vittal Rao    : ES-AILFT, MagRelax                            
  Christoph Reimann      : Effective Core Potentials                     
  Marius Retegan         : Local ZFS, SOC                                
  Christoph Riplinger    : Optimizer, TS searches, QM/MM, DLPNO-CCSD(T), (RO)-DLPNO pert. Triples 
  Michael Roemelt        : Original ROCIS implementation, recursive CI coupling coefficients
  Masaaki Saitow         : Open-shell DLPNO-CCSD energy and density      
  Barbara Sandhoefer     : DKH picture change effects                    
  Yorick L. A. Schmerwitz: GMF and freeze-and-release deltaSCF, NEB S-IDPP initial path                    
  Kantharuban Sivalingam : CASSCF convergence/infrastructure, NEVPT2, NEVPT3, NEVPT4(SD), FIC-MRCI and CEPA variants
  Bernardo de Souza      : ESD, SOC TD-DFT                               
  Georgi L. Stoychev     : AutoAux, RI-MP2 NMR, DLPNO-MP2 response, X2C  
  Van Anh Tran           : RI-MP2 g-tensors                              
  Willem Van den Heuvel  : Paramagnetic NMR                              
  Zikuan Wang            : NOTCH, Electric field optimization            
  Frank Wennmohs         : Technical directorship and infrastructure     
  Hang Xu                : AUTO-CI-Response properties                   
                                                                         
[FACCTs GmbH]                                                            
  Markus Bursch, Nicolas Foglia, Miquel Garcia-Rates, Ingolf Harden, Hagen Neugebauer, Anastasios Papadopoulos, 
  Christoph Riplinger, Bernardo de Souza, Georgi L. Stoychev                                                    
                                                                 
  APM, various basis sets, CI-OPT, improved COSX, DLPNO-Multilevel,           
  DOCKER, DRACO, updates on ESD, Fragmentator, GOAT, IRC, LR-CPCM, L-BFGS, MBIS, meta-GGA TD-DFT gradient, ML-optimized integration grids, 
  MM, NACMEs, nearIR, NEB, NEB-TS, NL-DFT gradient (VV10), 2- and 3-layer-ONIOM, interface openCOSMO-RS, QMMM,   
  Crystal-QMMM, RESP, rigid body optimization, SF, symmetry and pop. for TD-DFT, various functionals, SOLVATOR                                   
                                                                         
[Other institutions]                                                     
  V. Asgeirsson          : NEB                                           
  Christoph Bannwarth    : sTDA-DFT, sTD-DFT, PBEh-3c, B97-3c, D3        
  Giovanni Bistoni       : ETS/NOCV, ADLD/ADEX, COVALED                  
  Martin Brehm           : Molecular dynamics                            
  Ronald Cardenas        : ETS/NOCV                                      
  Martina Colucci        : COVALED                                       
  Sebastian Ehlert       : rSCAN, r2SCAN, r2SCAN-3c, D4, dhf basis sets  
  Marvin Friede          : D4 for Fr, Ra, Ac-Lr                          
  Lars Goerigk           : TD-DFT with DH, B97 family of functionals     
  Stefan Grimme          : VdW corrections, initial TS optimization, DFT functionals, gCP, sTDA/sTD-DF 
  Waldemar Hujo          : DFT-NL                                        
  H. Jonsson             : NEB                                           
  Holger Kruse           : gCP                                           
  Marcel Mueller         : wB97X-3c, vDZP basis set                      
  Hagen Neugebauer       : wr2SCAN, Native XTB                           
  Gianluca Regni         : ADLD/ADEX                                     
  Tobias Risthaus        : pre 6.0 range-separated hybrid DFT and stability analysis
  Lukas Wittmann         : regularized MP2, r2SCAN double-hybrids, wr2SCAN        
                                                                         
We gratefully acknowledge several colleagues who have allowed us to      
interface, adapt or use parts of their codes:                            
  Ed Valeev, F. Pavosevic, A. Kumar             : LibInt (2-el integral package), F12 methods 
  Garnet Chan, S. Sharma, J. Yang, R. Olivares  : DMRG                   
  Ulf Ekstrom                                   : XCFun DFT Library      
  Mihaly Kallay                                 : mrcc  (arbitrary order and MRCC methods)
  Frank Weinhold                                : gennbo (NPA and NBO analysis)           
  Simon Mueller                                 : openCOSMO-RS                            
  Christopher J. Cramer and Donald G. Truhlar   : smd solvation model                     
  S Lehtola, MJT Oliveira, MAL Marques          : LibXC Library                           
  Liviu Ungur et al                             : ANISO software                          


 Your calculation uses the libint2 library for the computation of 2-el integrals
 For citations please refer to: http://libint.valeyev.net

 Your ORCA version has been built with support for libXC version: 7.0.0
 For citations please refer to: https://libxc.gitlab.io

 This ORCA versions uses:
   CBLAS   interface :  Fast vector & matrix operations
   LAPACKE interface :  Fast linear algebra routines
   SCALAPACK package :  Parallel linear algebra routines
   Shared memory     :  Shared parallel matrices
   BLAS/LAPACK       :  OpenBLAS 0.3.29  USE64BITINT DYNAMIC_ARCH NO_AFFINITY Cooperlake SINGLE_THREADED
        Core in use  :  Cooperlake
   Copyright (c) 2011-2014, The OpenBLAS Project


  ***********************************
  * Starting time: Thu Mar 12 17:22:02 2026
  * Host name:     e1-3
  * Process ID:    3915230
  * Working dir.:  /tmp/lscratch/avcopan/43563288
  ***********************************

NOTE: MaxCore=9000 MB was set to SCF,MP2,MDCI,CIPSI,MRCI,RASCI and CIS
      => If you want to overwrite this, your respective input block should be placed after the MaxCore statement


***************************************
The coordinates will be read from file: opt.xyz
***************************************


================================================================================

----- Orbital basis set information -----
Your calculation utilizes the basis: cc-pVDZ-F12 

----- AuxC basis set information -----
Your calculation utilizes the auxiliary basis: cc-pVTZ/C 
  Obtained from the EMSL Basis Set Exchange (bse.pnl.gov) Feb. 2017
  H-He, B-F, Al-Ar, Ga-Kr : F. Weigend, A. Kohn, C. Hattig, J. Chem. Phys. 116, 3175 (2002)
             Li-Be, Na-Mg : C. Haettig, Phys. Chem. Chem. Phys. 7, 59 (2005)
                       Ne : C. Haettig, Phys. Chem. Chem. Phys. 7, 59 (2005)
                            F. Weigend, A. Kohn, C. Hattig, J. Chem. Phys. 116, 3175 (2002)
                    Sc-Zn : J. G. Hill, J. A. Platts, J. Chem. Phys. 128, 044104 (2008)

----- CABS information -----
Your calculation utilizes the basis: cc-pVDZ-F12 


                    <<< The CABS basis set will be decontracted >>>

================================================================================
                                        WARNINGS
                       Please study these warnings very carefully!
================================================================================


WARNING: Post HF methods need fully converged wavefunctions
  ===> : Setting SCFConvForced true
         You can overwrite this default with %scf ConvForced false 


WARNING: MDCI localization with Augmented Hessian Foster-Boys
  ===> : Switching off randomization!

WARNING: UseCISUpdate is  only available for RHF calculations...
  ===> : Setting UseCISUpdate = false 

================================================================================
                                       INPUT FILE
================================================================================
NAME = sp.inp
|  1> # 
|  2> % MaxCore 9000
|  3> ! PAL8
|  4> ! uhf ccsd(t)-f12/ri cc-pvdz-f12 cc-pvdz-f12-cabs cc-pvtz/c
|  5> * xyzfile 0 2 opt.xyz
|  6> 
|  7> 
|  8>                          ****END OF INPUT****
================================================================================

                       ****************************
                       * Single Point Calculation *
                       ****************************

---------------------------------
CARTESIAN COORDINATES (ANGSTROEM)
---------------------------------
  C     -1.463752   -0.668212   -0.526021
  C     -1.462317    0.667628   -0.526729
  H     -2.107554   -1.287822   -1.137419
  C     -0.447699    1.236227    0.436941
  H     -2.104785    1.287972   -1.138787
  C      0.162985   -0.001217    1.021334
  H      0.288328    1.873038   -0.073843
  H     -0.918595    1.876794    1.195868
  C     -0.450359   -1.237966    0.438254
  H      0.944597   -0.001664    1.766331
  H      0.284293   -1.876906   -0.071849
  H     -0.922632   -1.876708    1.197862

----------------------------
CARTESIAN COORDINATES (A.U.)
----------------------------
  NO LB      ZA    FRAG     MASS         X           Y           Z
   0 C     6.0000    0    12.011   -2.766091   -1.262738   -0.994036
   1 C     6.0000    0    12.011   -2.763379    1.261635   -0.995373
   2 H     1.0000    0     1.008   -3.982700   -2.433631   -2.149410
   3 C     6.0000    0    12.011   -0.846029    2.336131    0.825700
   4 H     1.0000    0     1.008   -3.977468    2.433914   -2.151995
   5 C     6.0000    0    12.011    0.307996   -0.002301    1.930042
   6 H     1.0000    0     1.008    0.544860    3.539529   -0.139543
   7 H     1.0000    0     1.008   -1.735893    3.546626    2.259862
   8 C     6.0000    0    12.011   -0.851056   -2.339416    0.828180
   9 H     1.0000    0     1.008    1.785031   -0.003145    3.337882
  10 H     1.0000    0     1.008    0.537236   -3.546839   -0.135774
  11 H     1.0000    0     1.008   -1.743523   -3.546464    2.263631

--------------------------------
INTERNAL COORDINATES (ANGSTROEM)
--------------------------------
 C      0   0   0     0.000000000000     0.00000000     0.00000000
 C      1   0   0     1.335841439254     0.00000000     0.00000000
 H      1   2   0     1.082683991892   124.93382515     0.00000000
 C      2   1   3     1.510435249680   112.13748925   180.01522634
 H      2   1   3     1.082684554974   124.93378988     0.00000000
 C      4   2   1     1.498572349878   102.22149209   359.94548463
 H      4   2   1     1.099165398725   111.80360537   120.79945223
 H      4   2   1     1.099107321066   111.84765033   239.08238045
 C      6   4   2     1.498572367333   111.28194616     0.08936998
 H      6   4   2     1.079786796908   124.35913027   180.06602417
 H      9   6   4     1.099164968632   112.75237113   120.10595750
 H      9   6   4     1.099107540920   112.74126399   239.66861744

---------------------------
INTERNAL COORDINATES (A.U.)
---------------------------
 C      0   0   0     0.000000000000     0.00000000     0.00000000
 C      1   0   0     2.524374478534     0.00000000     0.00000000
 H      1   2   0     2.045976234256   124.93382515     0.00000000
 C      2   1   3     2.854308964916   112.13748925   180.01522634
 H      2   1   3     2.045977298327   124.93378988     0.00000000
 C      4   2   1     2.831891333137   102.22149209   359.94548463
 H      4   2   1     2.077121579472   111.80360537   120.79945223
 H      4   2   1     2.077011828603   111.84765033   239.08238045
 C      6   4   2     2.831891366121   111.28194616     0.08936998
 H      6   4   2     2.040501329180   124.35913027   180.06602417
 H      9   6   4     2.077120766715   112.75237113   120.10595750
 H      9   6   4     2.077012244067   112.74126399   239.66861744

---------------------
BASIS SET INFORMATION
---------------------
There are 2 groups of distinct atoms

 Group   1 Type C   : 19s6p2d contracted to 5s5p2d pattern {88111/21111/11}
 Group   2 Type H   : 5s2p contracted to 3s2p pattern {311/11}

Atom   0C    basis set group =>   1
Atom   1C    basis set group =>   1
Atom   2H    basis set group =>   2
Atom   3C    basis set group =>   1
Atom   4H    basis set group =>   2
Atom   5C    basis set group =>   1
Atom   6H    basis set group =>   2
Atom   7H    basis set group =>   2
Atom   8C    basis set group =>   1
Atom   9H    basis set group =>   2
Atom  10H    basis set group =>   2
Atom  11H    basis set group =>   2
---------------------------------
AUXILIARY/C BASIS SET INFORMATION
---------------------------------
There are 2 groups of distinct atoms

 Group   1 Type C   : 8s6p5d3f1g contracted to 8s6p5d3f1g pattern {11111111/111111/11111/111/1}
 Group   2 Type H   : 4s3p2d1f contracted to 4s3p2d1f pattern {1111/111/11/1}

Atom   0C    basis set group =>   1
Atom   1C    basis set group =>   1
Atom   2H    basis set group =>   2
Atom   3C    basis set group =>   1
Atom   4H    basis set group =>   2
Atom   5C    basis set group =>   1
Atom   6H    basis set group =>   2
Atom   7H    basis set group =>   2
Atom   8C    basis set group =>   1
Atom   9H    basis set group =>   2
Atom  10H    basis set group =>   2
Atom  11H    basis set group =>   2
--------------
CABS BASIS SET
--------------
There are 2 groups of distinct atoms

 Group   1 Type C   : 15s10p6d3f1g contracted to 15s10p6d3f1g pattern {111111111111111/1111111111/111111/111/1}
 Group   2 Type H   : 8s5p2d contracted to 8s5p2d pattern {11111111/11111/11}

Atom   0C    basis set group =>   1
Atom   1C    basis set group =>   1
Atom   2H    basis set group =>   2
Atom   3C    basis set group =>   1
Atom   4H    basis set group =>   2
Atom   5C    basis set group =>   1
Atom   6H    basis set group =>   2
Atom   7H    basis set group =>   2
Atom   8C    basis set group =>   1
Atom   9H    basis set group =>   2
Atom  10H    basis set group =>   2
Atom  11H    basis set group =>   2


           ************************************************************
           *        Program running with 8 parallel MPI-processes     *
           *              working on a common directory               *
           ************************************************************
------------------------------------------------------------------------------
                             ORCA STARTUP CALCULATIONS
------------------------------------------------------------------------------
------------------------------------------------------------------------------
                   ___                                                        
                  /   \      - P O W E R E D   B Y -                         
                 /     \                                                     
                 |  |  |   _    _      __       _____    __    __             
                 |  |  |  | |  | |    /  \     |  _  \  |  |  /  |          
                  \  \/   | |  | |   /    \    | | | |  |  | /  /          
                 / \  \   | |__| |  /  /\  \   | |_| |  |  |/  /          
                |  |  |   |  __  | /  /__\  \  |    /   |      \           
                |  |  |   | |  | | |   __   |  |    \   |  |\   \          
                \     /   | |  | | |  |  |  |  | |\  \  |  | \   \       
                 \___/    |_|  |_| |__|  |__|  |_| \__\ |__|  \__/        
                                                                              
                      - O R C A' S   B I G   F R I E N D -                    
                                      &                                       
                       - I N T E G R A L  F E E D E R -                       
                                                                              
 v1 FN, 2020, v2 2021, v3 2022-2024                                           
------------------------------------------------------------------------------


----------------------
SHARK INTEGRAL PACKAGE
----------------------

Number of atoms                             ...     12
Number of basis functions                   ...    243
Number of shells                            ...    125
Maximum angular momentum                    ...      2
Integral batch strategy                     ... SHARK/LIBINT Hybrid
RI-J (if used) integral strategy            ... SPLIT-RIJ (Revised 2003 algorithm where possible)
Printlevel                                  ...      1
Contraction scheme used                     ... PARTIAL GENERAL contraction
Prescreening option                         ... SCHWARTZ
   Thresh                                   ... 1.000e-10
   Tcut                                     ... 1.000e-11
   Tpresel                                  ... 1.000e-11 
Coulomb Range Separation                    ... NOT USED
Exchange Range Separation                   ... NOT USED
Multipole approximations                    ... NOT USED
Finite Nucleus Model                        ... NOT USED
CABS basis                                  ... AVAILABLE
   # of basis functions in CABS             ...    756
   # of shells in CABS                      ...    280
   Maximum angular momentum in CABS         ...      4
F12 Gamma exponent                          ...  0.900000
F12-Geminal                                 ...  6 primitives
l =0 ng=6 ofs=0
   a( 0) =     0.220850853  d( 0)=    -0.314424804 
   a( 1) =     1.004019154  d( 1)=    -0.303695753 
   a( 2) =     3.621217265  d( 2)=    -0.168069685 
   a( 3) =    12.162483048  d( 3)=    -0.098115813 
   a( 4) =    45.855331575  d( 4)=    -0.060246641 
   a( 5) =   254.234600970  d( 5)=    -0.037263542 
Auxiliary Coulomb fitting basis             ... NOT available
Auxiliary J/K fitting basis                 ... NOT available
Auxiliary Correlation fitting basis         ... AVAILABLE
   # of basis functions in Aux-C            ...    615
   # of shells in Aux-C                     ...    185
   Maximum angular momentum in Aux-C        ...      4
Auxiliary 'external' fitting basis          ... NOT available

Checking pre-screening integrals            ... done (  0.0 sec) Dimension = 125
Save PGC pre-screening integrals            ... done (  0.0 sec) Dimension = 125
Calculate PGC overlap integrals             ... done (  0.0 sec) Dimension = 95
Calculating pre-screening integrals (ORCA)  ... done (  0.0 sec) Dimension = 95
Shell pair information
Shell pair cut-off parameter TPreSel        ...   1.0e-11
Total number of shell pairs                 ...      7875
Shell pairs after pre-screening             ...      7031
Total number of primitive shell pairs       ...     10466
Primitive shell pairs kept                  ...      8609
          la=0 lb=0:   2361 shell pairs
          la=1 lb=0:   2712 shell pairs
          la=1 lb=1:    753 shell pairs
          la=2 lb=0:    760 shell pairs
          la=2 lb=1:    390 shell pairs
          la=2 lb=2:     55 shell pairs

Checking whether 4 symmetric matrices of dimension 243 fit in memory
:Max Core in MB      =   9000.00
 MB in use           =     46.44
 MB left             =   8953.56
 MB needed           =      0.90
 Data fit in memory  = YES
Calculating RI/C V-Matrix + Cholesky decomp.... done (  0.0 sec)
Calculating Nuclear repulsion               ... done (  0.0 sec) ENN=    162.826744616423 Eh

Diagonalization of the overlap matrix:
Smallest eigenvalue                        ... 6.177e-05
Time for diagonalization                   ...    0.004 sec
Threshold for overlap eigenvalues          ... 1.000e-07
Number of eigenvalues below threshold      ... 0
Time for construction of square roots      ...    0.002 sec
Total time needed                          ...    0.006 sec

-------------------
DFT GRID GENERATION
-------------------

General Integration Accuracy     IntAcc      ... 4.388
Radial Grid Type                 RadialGrid  ... OptM3 with GC (2021)
Angular Grid (max. ang.)         AngularGrid ... 4 (Lebedev-302)
Angular grid pruning method      GridPruning ... 4 (adaptive)
Weight generation scheme         WeightScheme... mBecke (2022)
Basis function cutoff            BFCut       ... 1.0000e-10
Integration weight cutoff        WCut        ... 1.0000e-14
Partially contracted basis set               ... off
Rotationally invariant grid construction     ... off
Angular grids for H and He will be reduced by one unit
Diffuse basis detected: some atoms will have their outermost
                        angular grid increased by 1.

Total number of grid points                  ...    54138
Total number of batches                      ...      850
Average number of points per batch           ...       63
Average number of grid points per atom       ...     4512

---------------------
SHARK GRID GENERATION
---------------------

General Integration Accuracy     IntAcc      ... 4.388
Radial Grid Type                 RadialGrid  ... OptM3 with GC (2021)
Angular Grid (max. ang.)         AngularGrid ... 4 (Lebedev-302)
Angular grid pruning method      GridPruning ... 4 (adaptive)
Weight generation scheme         WeightScheme... mBecke (2022)
Basis function cutoff            BFCut       ... 1.0000e-10
Integration weight cutoff        WCut        ... 1.0000e-14
Partially contracted basis set               ... off
Rotationally invariant grid construction     ... off
Angular grids for H and He will be reduced by one unit
Diffuse basis detected: some atoms will have their outermost
                        angular grid increased by 1.
Steep s-basis detected: some atoms will have their radial
                        grid points doubled.

Total number of grid points                  ...    85905
Total number of batches                      ...     1348
Average number of points per batch           ...       63
Average number of grid points per atom       ...     7159
Grids setup in   0.5 sec
Initializing property integral containers    ... done (  0.0 sec)

SHARK setup successfully completed in   0.9 seconds

Maximum memory used throughout the entire STARTUP-calculation: 62.9 MB


           ************************************************************
           *        Program running with 8 parallel MPI-processes     *
           *              working on a common directory               *
           ************************************************************
-------------------------------------------------------------------------------
                                 ORCA GUESS
                   Start orbitals & Density for SCF / CASSCF
-------------------------------------------------------------------------------

------------
SCF SETTINGS
------------
Hamiltonian:
 Ab initio Hamiltonian  Method          .... Hartree-Fock(GTOs)


General Settings:
 Integral files         IntName         .... sp
 Hartree-Fock type      HFTyp           .... UHF
 Total Charge           Charge          ....    0
 Multiplicity           Mult            ....    2
 Number of Electrons    NEL             ....   37
 Basis Dimension        Dim             ....  213
 Nuclear Repulsion      ENuc            ....    162.8267446164 Eh

Convergence Acceleration:
 AO-DIIS                CNVDIIS         .... on
   Start iteration      DIISMaxIt       ....    12
   Startup error        DIISStart       ....  0.200000
   # of expansion vecs  DIISMaxEq       ....     5
   Bias factor          DIISBfac        ....   1.050
   Max. coefficient     DIISMaxC        ....  10.000
 MO-DIIS                CNVKDIIS        .... off
 Trust-Rad. Augm. Hess. CNVTRAH         .... auto
   Auto Start mean grad. ratio tolernc. ....  1.125000
   Auto Start start iteration           ....    50
   Auto Start num. interpolation iter.  ....    10
   Max. Number of Micro iterations      ....    24
   Max. Number of Macro iterations      .... Maxiter - #DIIS iter
   Number of Davidson start vectors     ....     2
   Converg. threshold    (grad. norm)   ....   5.000e-05
   Grad. Scal. Fac. for Micro threshold ....   0.100
   Minimum threshold for Micro iter.    ....   1.000e-02
   NR start threshold (gradient norm)   ....   1.000e-04
   Initial trust radius                 ....   0.400
   Minimum AH scaling param. (alpha)    ....   1.000
   Maximum AH scaling param. (alpha)    .... 1000.000
   Quad. conv. algorithm                .... NR
   White noise on init. David. guess    .... on
   Maximum white noise                  ....   0.010
   Pseudo random numbers                .... off
   Inactive MOs                         .... canonical
   Orbital update algorithm             .... Taylor
   Preconditioner                       .... Diag
   Full preconditioner red. dimension   ....   250
 SOSCF                 CNVSOSCF           .... on
   Start iteration     SOSCFMaxIt         ....   150
   Startup grad/error  SOSCFStart         ....  0.003300
   Hessian update      SOSCFHessUp        .... L-BFGS
   Autom. constraints  SOSCFAutoConstrain .... off
 Level Shifting         CNVShift        .... on
   Level shift para.    LevelShift      ....    0.2500
   Turn off err/grad.   ShiftErr        ....    0.0010
 Zerner damping         CNVZerner       .... off
 Static damping         CNVDamp         .... on
   Fraction old density DampFac         ....    0.7000
   Max. Damping (<1)    DampMax         ....    0.9800
   Min. Damping (>=0)   DampMin         ....    0.0000
   Turn off err/grad.   DampErr         ....    0.1000

SCF Procedure:
 Maximum # iterations   MaxIter         ....   125
 SCF integral mode      SCFMode         .... Direct
   Integral package                     .... SHARK and LIBINT hybrid scheme
 Reset frequency        DirectResetFreq ....    20
 Integral Threshold     Thresh          ....  1.000e-10 Eh
 Primitive CutOff       TCut            ....  1.000e-11 Eh

Convergence Tolerance:
 Convergence Check Mode ConvCheckMode   .... Total+1el-Energy
 Convergence forced     ConvForced      .... 1
 Energy Change          TolE            ....  1.000e-06 Eh
 1-El. energy change                    ....  1.000e-03 Eh
 Orbital Gradient       TolG            ....  5.000e-05
 Orbital Rotation angle TolX            ....  5.000e-05
 DIIS Error             TolErr          ....  1.000e-06

------------------------------
INITIAL GUESS: MODEL POTENTIAL
------------------------------
Loading Hartree-Fock densities                     ... done
Calculating cut-offs                               ... done
Initializing the effective Hamiltonian             ... done
Setting up the integral package (SHARK)            ... done
Starting the Coulomb interaction                   ... done (   0.0 sec)
Making the grid                                    ... done (   0.0 sec)
Mapping shells                                     ... done
Starting the XC term evaluation                    ... done (   0.0 sec)
Transforming the Hamiltonian                       ... done (   0.0 sec)
Diagonalizing the Hamiltonian                      ... done (   0.0 sec)
Back transforming the eigenvectors                 ... done (   0.0 sec)
Now organizing SCF variables                       ... done
                      ------------------
                      INITIAL GUESS DONE (   0.1 sec)
                      ------------------
             **** ENERGY FILE WAS UPDATED (sp.en.tmp) ****
Finished Guess after   1.6 sec
Maximum memory used throughout the entire GUESS-calculation: 14.2 MB


           ************************************************************
           *        Program running with 8 parallel MPI-processes     *
           *              working on a common directory               *
           ************************************************************

-------------------------------------------------------------------------------------------
                                      ORCA LEAN-SCF
                              memory conserving SCF solver
-------------------------------------------------------------------------------------------

----------------------------------------D-I-I-S--------------------------------------------
Iteration    Energy (Eh)           Delta-E    RMSDP     MaxDP     DIISErr   Damp  Time(sec)
-------------------------------------------------------------------------------------------
               ***  Starting incremental Fock matrix formation  ***
    1    -193.1461083919707846     0.00e+00  1.70e-03  1.36e-02  9.66e-02  0.700   0.9
    2    -193.2360399837365605    -8.99e-02  1.37e-03  1.11e-02  6.50e-02  0.700   0.9
                               ***Turning on AO-DIIS***
    3    -193.2914135387756289    -5.54e-02  8.79e-04  7.84e-03  4.84e-02  0.700   0.9
    4    -193.3272513305470568    -3.58e-02  2.15e-03  1.87e-02  3.46e-02  0.000   0.8
    5    -193.4103920727906427    -8.31e-02  3.40e-04  3.68e-03  4.69e-03  0.000   0.9
                              *** Initializing SOSCF ***
---------------------------------------S-O-S-C-F--------------------------------------
Iteration    Energy (Eh)           Delta-E    RMSDP     MaxDP     MaxGrad    Time(sec)
--------------------------------------------------------------------------------------
    6    -193.4113410560629802    -9.49e-04  2.60e-04  2.89e-03  2.51e-03     0.8
               *** Restarting incremental Fock matrix formation ***
    7    -193.4117048645428270    -3.64e-04  1.36e-04  1.61e-03  2.06e-03     0.9
    8    -193.4117917783031828    -8.69e-05  1.59e-04  1.77e-03  9.63e-04     0.8
    9    -193.4118331141238230    -4.13e-05  2.66e-05  3.12e-04  2.50e-04     0.8
   10    -193.4118353616995307    -2.25e-06  1.59e-05  1.63e-04  1.73e-04     0.8
   11    -193.4118361833023130    -8.22e-07  5.92e-06  7.25e-05  5.71e-05     0.7
                 **** Energy Check signals convergence ****

               *****************************************************
               *                     SUCCESS                       *
               *           SCF CONVERGED AFTER  11 CYCLES          *
               *****************************************************

             **** ENERGY FILE WAS UPDATED (sp.en.tmp) ****

----------------
TOTAL SCF ENERGY
----------------

Total Energy       :       -193.41183631207426 Eh           -5263.00363 eV

Components:
Nuclear Repulsion  :        162.82674461642327 Eh            4430.74098 eV
Electronic Energy  :       -356.23858092849753 Eh           -9693.74461 eV
One Electron Energy:       -582.44277110939379 Eh          -15849.07355 eV
Two Electron Energy:        226.20419018089626 Eh            6155.32895 eV

Virial components:
Potential Energy   :       -386.59524676833792 Eh          -10519.79148 eV
Kinetic Energy     :        193.18341045626363 Eh            5256.78785 eV
Virial Ratio       :          2.00118242997818

---------------
SCF CONVERGENCE
---------------

  Last Energy change         ...    8.2160e-07  Tolerance :   1.0000e-06
  Last MAX-Density change    ...    7.2528e-05  Tolerance :   1.0000e-05
  Last RMS-Density change    ...    5.9238e-06  Tolerance :   1.0000e-06
  Last DIIS Error            ...    2.5100e-03  Tolerance :   1.0000e-06
  Last Orbital Gradient      ...    5.7088e-05  Tolerance :   5.0000e-05
  Last Orbital Rotation      ...    1.9203e-04  Tolerance :   5.0000e-05


----------------------
UHF SPIN CONTAMINATION
----------------------

Expectation value of <S**2>     :     0.765273
Ideal value S*(S+1) for S=0.5   :     0.750000
Deviation                       :     0.015273

----------------
ORBITAL ENERGIES
----------------
                 SPIN UP ORBITALS
  NO   OCC          E(Eh)            E(eV) 
   0   1.0000     -11.226007      -305.4752 
   1   1.0000     -11.224900      -305.4451 
   2   1.0000     -11.224892      -305.4448 
   3   1.0000     -11.224288      -305.4284 
   4   1.0000     -11.222801      -305.3879 
   5   1.0000      -1.139440       -31.0057 
   6   1.0000      -0.965763       -26.2797 
   7   1.0000      -0.962139       -26.1811 
   8   1.0000      -0.777220       -21.1492 
   9   1.0000      -0.728743       -19.8301 
  10   1.0000      -0.682026       -18.5589 
  11   1.0000      -0.619888       -16.8680 
  12   1.0000      -0.553606       -15.0644 
  13   1.0000      -0.544907       -14.8277 
  14   1.0000      -0.506395       -13.7797 
  15   1.0000      -0.505899       -13.7662 
  16   1.0000      -0.489256       -13.3133 
  17   1.0000      -0.358007        -9.7419 
  18   1.0000      -0.319348        -8.6899 
  19   0.0000       0.060237         1.6391 
  20   0.0000       0.062942         1.7127 
  21   0.0000       0.064807         1.7635 
  22   0.0000       0.077650         2.1130 
  23   0.0000       0.078804         2.1444 
  24   0.0000       0.091871         2.4999 
  25   0.0000       0.106507         2.8982 
  26   0.0000       0.121023         3.2932 
  27   0.0000       0.126064         3.4304 
  28   0.0000       0.136332         3.7098 
  29   0.0000       0.138242         3.7618 

                 SPIN DOWN ORBITALS
  NO   OCC          E(Eh)            E(eV) 
   0   1.0000     -11.228148      -305.5335 
   1   1.0000     -11.228146      -305.5334 
   2   1.0000     -11.224391      -305.4312 
   3   1.0000     -11.222688      -305.3849 
   4   1.0000     -11.201345      -304.8041 
   5   1.0000      -1.124174       -30.5903 
   6   1.0000      -0.962263       -26.1845 
   7   1.0000      -0.933919       -25.4132 
   8   1.0000      -0.737722       -20.0744 
   9   1.0000      -0.727549       -19.7976 
  10   1.0000      -0.675393       -18.3784 
  11   1.0000      -0.585076       -15.9207 
  12   1.0000      -0.541580       -14.7371 
  13   1.0000      -0.538186       -14.6448 
  14   1.0000      -0.502233       -13.6665 
  15   1.0000      -0.496998       -13.5240 
  16   1.0000      -0.485497       -13.2111 
  17   1.0000      -0.343560        -9.3487 
  18   0.0000       0.060363         1.6426 
  19   0.0000       0.063067         1.7161 
  20   0.0000       0.065644         1.7863 
  21   0.0000       0.078235         2.1289 
  22   0.0000       0.078810         2.1445 
  23   0.0000       0.091032         2.4771 
  24   0.0000       0.105292         2.8651 
  25   0.0000       0.106570         2.8999 
  26   0.0000       0.126516         3.4427 
  27   0.0000       0.134674         3.6647 
  28   0.0000       0.136510         3.7146 
*Only the first 10 virtual orbitals were printed.

                    ********************************
                    * MULLIKEN POPULATION ANALYSIS *
                    ********************************

--------------------------------------------
MULLIKEN ATOMIC CHARGES AND SPIN POPULATIONS
--------------------------------------------
   0 C :   -0.227395    0.012037
   1 C :   -0.227396    0.012037
   2 H :    0.140854   -0.001497
   3 C :   -0.026604   -0.184463
   4 H :    0.140853   -0.001497
   5 C :   -0.299703    1.251523
   6 H :    0.094977    0.051296
   7 H :    0.095006    0.051085
   8 C :   -0.026605   -0.184463
   9 H :    0.146031   -0.108438
  10 H :    0.094977    0.051295
  11 H :    0.095006    0.051085
Sum of atomic charges         :   -0.0000000
Sum of atomic spin populations:    1.0000000

-----------------------------------------------------
MULLIKEN REDUCED ORBITAL CHARGES AND SPIN POPULATIONS
-----------------------------------------------------
CHARGE
  0 C s       :     3.170962  s :     3.170962
      pz      :     0.988700  p :     2.975187
      px      :     0.991909
      py      :     0.994579
      dz2     :     0.007236  d :     0.081246
      dxz     :     0.008758
      dyz     :     0.027287
      dx2y2   :     0.010701
      dxy     :     0.027265

  1 C s       :     3.170963  s :     3.170963
      pz      :     0.988751  p :     2.975187
      px      :     0.991801
      py      :     0.994636
      dz2     :     0.007224  d :     0.081246
      dxz     :     0.008757
      dyz     :     0.027298
      dx2y2   :     0.010718
      dxy     :     0.027248

  2 H s       :     0.830368  s :     0.830368
      pz      :     0.012614  p :     0.028778
      px      :     0.012568
      py      :     0.003596

  3 C s       :     2.919282  s :     2.919282
      pz      :     0.982767  p :     2.999339
      px      :     0.976514
      py      :     1.040059
      dz2     :     0.016438  d :     0.107984
      dxz     :     0.022698
      dyz     :     0.028087
      dx2y2   :     0.013632
      dxy     :     0.027130

  4 H s       :     0.830368  s :     0.830368
      pz      :     0.012623  p :     0.028778
      px      :     0.012550
      py      :     0.003606

  5 C s       :     3.235921  s :     3.235921
      pz      :     1.015828  p :     2.992407
      px      :     1.019702
      py      :     0.956876
      dz2     :     0.008194  d :     0.071376
      dxz     :     0.013608
      dyz     :     0.015277
      dx2y2   :     0.018691
      dxy     :     0.015605

  6 H s       :     0.871161  s :     0.871161
      pz      :     0.007440  p :     0.033862
      px      :     0.011509
      py      :     0.014913

  7 H s       :     0.871130  s :     0.871130
      pz      :     0.011641  p :     0.033865
      px      :     0.007248
      py      :     0.014975

  8 C s       :     2.919283  s :     2.919283
      pz      :     0.982820  p :     2.999338
      px      :     0.976400
      py      :     1.040119
      dz2     :     0.016462  d :     0.107984
      dxz     :     0.022699
      dyz     :     0.028054
      dx2y2   :     0.013578
      dxy     :     0.027191

  9 H s       :     0.822277  s :     0.822277
      pz      :     0.014875  p :     0.031691
      px      :     0.014988
      py      :     0.001828

 10 H s       :     0.871161  s :     0.871161
      pz      :     0.007432  p :     0.033862
      px      :     0.011480
      py      :     0.014949

 11 H s       :     0.871130  s :     0.871130
      pz      :     0.011656  p :     0.033864
      px      :     0.007262
      py      :     0.014947


SPIN
  0 C s       :     0.006164  s :     0.006164
      pz      :     0.002933  p :     0.008249
      px      :     0.003219
      py      :     0.002098
      dz2     :    -0.000316  d :    -0.002377
      dxz     :    -0.000667
      dyz     :    -0.000336
      dx2y2   :    -0.000651
      dxy     :    -0.000407

  1 C s       :     0.006164  s :     0.006164
      pz      :     0.002927  p :     0.008249
      px      :     0.003231
      py      :     0.002091
      dz2     :    -0.000316  d :    -0.002377
      dxz     :    -0.000667
      dyz     :    -0.000336
      dx2y2   :    -0.000650
      dxy     :    -0.000409

  2 H s       :    -0.001385  s :    -0.001385
      pz      :    -0.000073  p :    -0.000112
      px      :    -0.000072
      py      :     0.000032

  3 C s       :    -0.055857  s :    -0.055857
      pz      :    -0.045359  p :    -0.148496
      px      :    -0.044465
      py      :    -0.058672
      dz2     :     0.002182  d :     0.019889
      dxz     :     0.000323
      dyz     :     0.008624
      dx2y2   :     0.000917
      dxy     :     0.007843

  4 H s       :    -0.001385  s :    -0.001385
      pz      :    -0.000073  p :    -0.000112
      px      :    -0.000072
      py      :     0.000032

  5 C s       :     0.132743  s :     0.132743
      pz      :     0.533595  p :     1.114243
      px      :     0.495617
      py      :     0.085031
      dz2     :     0.001218  d :     0.004537
      dxz     :    -0.003539
      dyz     :     0.001783
      dx2y2   :     0.003202
      dxy     :     0.001872

  6 H s       :     0.052918  s :     0.052918
      pz      :    -0.000217  p :    -0.001623
      px      :     0.000666
      py      :    -0.002072

  7 H s       :     0.052704  s :     0.052704
      pz      :     0.000638  p :    -0.001619
      px      :    -0.000182
      py      :    -0.002075

  8 C s       :    -0.055857  s :    -0.055857
      pz      :    -0.045316  p :    -0.148496
      px      :    -0.044555
      py      :    -0.058624
      dz2     :     0.002166  d :     0.019889
      dxz     :     0.000325
      dyz     :     0.008634
      dx2y2   :     0.000942
      dxy     :     0.007823

  9 H s       :    -0.122148  s :    -0.122148
      pz      :     0.007531  p :     0.013711
      px      :     0.006996
      py      :    -0.000816

 10 H s       :     0.052918  s :     0.052918
      pz      :    -0.000215  p :    -0.001623
      px      :     0.000666
      py      :    -0.002073

 11 H s       :     0.052704  s :     0.052704
      pz      :     0.000638  p :    -0.001619
      px      :    -0.000185
      py      :    -0.002071



                     *******************************
                     * LOEWDIN POPULATION ANALYSIS *
                     *******************************

-------------------------------------------
LOEWDIN ATOMIC CHARGES AND SPIN POPULATIONS
-------------------------------------------
   0 C :   -0.021523   -0.000744
   1 C :   -0.021523   -0.000744
   2 H :    0.010508   -0.000813
   3 C :   -0.048279    0.029045
   4 H :    0.010508   -0.000813
   5 C :    0.065506    0.800851
   6 H :    0.018155    0.026190
   7 H :    0.018135    0.026074
   8 C :   -0.048279    0.029045
   9 H :   -0.019498    0.039647
  10 H :    0.018155    0.026189
  11 H :    0.018135    0.026074

----------------------------------------------------
LOEWDIN REDUCED ORBITAL CHARGES AND SPIN POPULATIONS
----------------------------------------------------
CHARGE
  0 C s       :     2.731595  s :     2.731595
      pz      :     0.908324  p :     2.877598
      px      :     0.915067
      py      :     1.054207
      dz2     :     0.047740  d :     0.412330
      dxz     :     0.051586
      dyz     :     0.113315
      dx2y2   :     0.081439
      dxy     :     0.118249

  1 C s       :     2.731595  s :     2.731595
      pz      :     0.908348  p :     2.877598
      px      :     0.915016
      py      :     1.054234
      dz2     :     0.047684  d :     0.412330
      dxz     :     0.051581
      dyz     :     0.113366
      dx2y2   :     0.081521
      dxy     :     0.118178

  2 H s       :     0.800325  s :     0.800325
      pz      :     0.065354  p :     0.189167
      px      :     0.066742
      py      :     0.057071

  3 C s       :     2.676986  s :     2.676986
      pz      :     0.979361  p :     2.938146
      px      :     0.976634
      py      :     0.982151
      dz2     :     0.058632  d :     0.433147
      dxz     :     0.083925
      dyz     :     0.114738
      dx2y2   :     0.062795
      dxy     :     0.113058

  4 H s       :     0.800325  s :     0.800325
      pz      :     0.065387  p :     0.189167
      px      :     0.066671
      py      :     0.057109

  5 C s       :     2.756375  s :     2.756375
      pz      :     0.921695  p :     2.821441
      px      :     0.930153
      py      :     0.969593
      dz2     :     0.041805  d :     0.356677
      dxz     :     0.062786
      dyz     :     0.081321
      dx2y2   :     0.087421
      dxy     :     0.083344

  6 H s       :     0.792536  s :     0.792536
      pz      :     0.058483  p :     0.189309
      px      :     0.068086
      py      :     0.062740

  7 H s       :     0.792571  s :     0.792571
      pz      :     0.069471  p :     0.189294
      px      :     0.056903
      py      :     0.062920

  8 C s       :     2.676986  s :     2.676986
      pz      :     0.979362  p :     2.938146
      px      :     0.976632
      py      :     0.982152
      dz2     :     0.058689  d :     0.433148
      dxz     :     0.083937
      dyz     :     0.114643
      dx2y2   :     0.062672
      dxy     :     0.113206

  9 H s       :     0.811792  s :     0.811792
      pz      :     0.080482  p :     0.207706
      px      :     0.081993
      py      :     0.045231

 10 H s       :     0.792536  s :     0.792536
      pz      :     0.058457  p :     0.189309
      px      :     0.068013
      py      :     0.062840

 11 H s       :     0.792570  s :     0.792570
      pz      :     0.069509  p :     0.189295
      px      :     0.056953
      py      :     0.062833


SPIN
  0 C s       :     0.000547  s :     0.000547
      pz      :     0.000990  p :     0.002707
      px      :     0.001100
      py      :     0.000617
      dz2     :    -0.001230  d :    -0.003998
      dxz     :    -0.001048
      dyz     :    -0.000214
      dx2y2   :    -0.001231
      dxy     :    -0.000275

  1 C s       :     0.000547  s :     0.000547
      pz      :     0.000989  p :     0.002707
      px      :     0.001103
      py      :     0.000616
      dz2     :    -0.001230  d :    -0.003998
      dxz     :    -0.001047
      dyz     :    -0.000215
      dx2y2   :    -0.001229
      dxy     :    -0.000278

  2 H s       :    -0.000790  s :    -0.000790
      pz      :    -0.000040  p :    -0.000023
      px      :    -0.000035
      py      :     0.000052

  3 C s       :    -0.007356  s :    -0.007356
      pz      :    -0.013108  p :    -0.047605
      px      :    -0.013260
      py      :    -0.021237
      dz2     :     0.009582  d :     0.084005
      dxz     :     0.001747
      dyz     :     0.035506
      dx2y2   :     0.004496
      dxy     :     0.032675

  4 H s       :    -0.000790  s :    -0.000790
      pz      :    -0.000040  p :    -0.000023
      px      :    -0.000034
      py      :     0.000052

  5 C s       :     0.037481  s :     0.037481
      pz      :     0.387913  p :     0.776224
      px      :     0.355226
      py      :     0.033085
      dz2     :     0.000822  d :    -0.012855
      dxz     :    -0.007250
      dyz     :    -0.002325
      dx2y2   :    -0.001705
      dxy     :    -0.002397

  6 H s       :     0.026036  s :     0.026036
      pz      :     0.000942  p :     0.000154
      px      :    -0.000735
      py      :    -0.000052

  7 H s       :     0.025943  s :     0.025943
      pz      :    -0.000718  p :     0.000131
      px      :     0.000902
      py      :    -0.000053

  8 C s       :    -0.007356  s :    -0.007356
      pz      :    -0.013091  p :    -0.047605
      px      :    -0.013296
      py      :    -0.021218
      dz2     :     0.009526  d :     0.084005
      dxz     :     0.001754
      dyz     :     0.035533
      dx2y2   :     0.004582
      dxy     :     0.032610

  9 H s       :    -0.034194  s :    -0.034194
      pz      :     0.037363  p :     0.073841
      px      :     0.034870
      py      :     0.001608

 10 H s       :     0.026035  s :     0.026035
      pz      :     0.000939  p :     0.000154
      px      :    -0.000740
      py      :    -0.000045

 11 H s       :     0.025943  s :     0.025943
      pz      :    -0.000716  p :     0.000131
      px      :     0.000908
      py      :    -0.000061



                      *****************************
                      * MAYER POPULATION ANALYSIS *
                      *****************************

  NA   - Mulliken gross atomic population
  ZA   - Total nuclear charge
  QA   - Mulliken gross atomic charge
  VA   - Mayer's total valence
  BVA  - Mayer's bonded valence
  FA   - Mayer's free valence

  ATOM       NA         ZA         QA         VA         BVA        FA
  0 C      6.2274     6.0000    -0.2274     4.0622     4.0620     0.0002
  1 C      6.2274     6.0000    -0.2274     4.0622     4.0620     0.0002
  2 H      0.8591     1.0000     0.1409     0.9740     0.9740     0.0000
  3 C      6.0266     6.0000    -0.0266     4.0938     4.0809     0.0130
  4 H      0.8591     1.0000     0.1409     0.9740     0.9740     0.0000
  5 C      6.2997     6.0000    -0.2997     4.0623     3.1578     0.9045
  6 H      0.9050     1.0000     0.0950     0.9992     0.9962     0.0030
  7 H      0.9050     1.0000     0.0950     0.9992     0.9962     0.0030
  8 C      6.0266     6.0000    -0.0266     4.0938     4.0809     0.0130
  9 H      0.8540     1.0000     0.1460     0.9786     0.9633     0.0153
 10 H      0.9050     1.0000     0.0950     0.9992     0.9962     0.0030
 11 H      0.9050     1.0000     0.0950     0.9992     0.9962     0.0030

  Mayer bond orders larger than 0.100000
B(  0-C ,  1-C ) :   1.9755 B(  0-C ,  2-H ) :   0.9498 B(  0-C ,  8-C ) :   1.0934 
B(  1-C ,  3-C ) :   1.0934 B(  1-C ,  4-H ) :   0.9498 B(  3-C ,  5-C ) :   1.0604 
B(  3-C ,  6-H ) :   0.9470 B(  3-C ,  7-H ) :   0.9472 B(  5-C ,  8-C ) :   1.0604 
B(  5-C ,  9-H ) :   0.9517 B(  8-C , 10-H ) :   0.9470 B(  8-C , 11-H ) :   0.9472 


-------
TIMINGS
-------

Total SCF time: 0 days 0 hours 0 min 11 sec 

Total time                  ....      11.393 sec
Sum of individual times     ....      10.749 sec  ( 94.3%)

SCF preparation             ....       1.480 sec  ( 13.0%)
Fock matrix formation       ....       8.856 sec  ( 77.7%)
  Startup                   ....       0.008 sec  (  0.1% of F)
  Coulomb+Exchange Fock     ....       9.447 sec  (106.7% of F)
Diagonalization             ....       0.000 sec  (  0.0%)
Density matrix formation    ....       0.055 sec  (  0.5%)
Total Energy calculation    ....       0.021 sec  (  0.2%)
Population analysis         ....       0.019 sec  (  0.2%)
Orbital Transformation      ....       0.041 sec  (  0.4%)
Orbital Orthonormalization  ....       0.000 sec  (  0.0%)
DIIS solution               ....       0.168 sec  (  1.5%)
SOSCF solution              ....       0.106 sec  (  0.9%)
Finished LeanSCF after  11.4 sec

Maximum memory used throughout the entire LEANSCF-calculation: 16.9 MB


           ************************************************************
           *        Program running with 8 parallel MPI-processes     *
           *              working on a common directory               *
           ************************************************************

------------------------------------------------------------------------------
                         ORCA PROPERTY INTEGRAL CALCULATIONS
------------------------------------------------------------------------------

GBWName                                   ... sp.gbw
Number of atoms                           ...     12
Number of basis functions                 ...    243
Max core memory                           ...   9000 MB

Dipole integrals                          ... YES
Quadrupole integrals                      ...  NO
Linear momentum integrals                 ... YES
Angular momentum integrals                ... YES
Higher moments length integrals           ...  NO
Higher moments velocity integrals         ...  NO
Kinetic energy integrals                  ...  NO
GIAO right hand sides                     ...  NO
GIAO dipole derivative integrals          ...  NO
SOC integrals                             ...  NO
EPR diamagnetic integrals (GIAO)          ...  NO
EPR gauge integrals                       ...  NO
Field gradient integrals                  ...  NO (   0 nuclei)
Spin-dipole/Fermi contact integrals       ...  NO (   0 nuclei)
Contact density integrals                 ...  NO (   0 nuclei)
Nucleus-orbit integrals                   ...  NO (   0 nuclei)
Geometric perturbations                   ...  NO (  12 nuclei)

Choice of electric origin   ... Center of mass
Position of electric origin ... ( -1.3670, -0.0013,  0.3347) 
Choice of magnetic origin   ... GIAO
Position of magnetic origin ... (  0.0000,  0.0000,  0.0000) 

Calculating integrals                     ... Electric Dipole (Length)     done (  0.0 sec)
Calculating integrals                     ... Linear Momentum              done (  0.0 sec)
Calculating integrals                     ... Angular Momentum  (ElOri)    done (  0.0 sec)

Property integrals calculated in   0.0 sec

Maximum memory used throughout the entire PROPINT-calculation: 14.8 MB


           ************************************************************
           *        Program running with 8 parallel MPI-processes     *
           *              working on a common directory               *
           ************************************************************


--------------------------------------------------------------------------------
                             ORCA-MATRIX DRIVEN CI
--------------------------------------------------------------------------------

--------------------------------
AUTOMATIC CHOICE OF INCORE LEVEL
--------------------------------

Memory available                           ...   4500.00 MB
Memory needed for S+T                      ...     90.45 MB
Memory needed for J+K                      ...    181.21 MB
Memory needed for DIIS                     ...   1266.29 MB
Memory needed for 3-ext                    ...    779.87 MB
Memory needed for 4-ext                    ...   5431.25 MB
Memory needed for triples                  ...    278.53 MB
 -> Final InCoreLevel    ... 4
 -> check shows that triples correction can be computed


Wavefunction type
-----------------
Correlation treatment                      ...      CCSD     
Single excitations                         ... ON
Orbital optimization                       ... OFF
Calculation of Z vector                    ... OFF
Calculation of Brueckner orbitals          ... OFF
Perturbative triple excitations            ... ON
Calculation of F12 correction              ... ON
   Using RI for F12 correction             ... ON
Frozen core treatment                      ... chemical core (10 el)
Reference Wavefunction                     ... UHF
  Alpha-MOs occ    :     5 ...   18 ( 14 MO's/ 14 electrons)
  Beta-MOs occ     :     5 ...   17 ( 13 MO's/ 13 electrons)
  Alpha-MOs virt   :    19 ...  212 (194 MO's              )
  Beta-MOs virt    :    18 ...  212 (195 MO's              )
Number of AO's                             ...    213
Number of electrons                        ...     37
Number of correlated electrons             ...     27

Algorithmic settings
--------------------
Integral transformation                    ... Separate K and J transformations
K(C) Formation                             ... AO-EXCHANGE STORED
Maximum number of iterations               ...        50
Convergence tolerance (max. residuum)      ... 2.500e-05
Level shift for amplitude update           ... 2.000e-01
Maximum number of DIIS vectors             ...         7
DIIS turned on at iteration                ...         0
Damping before turning on DIIS             ...     0.500
Damping after turning on DIIS              ...     0.000
Pair specific amplitude update             ... OFF
Natural orbital iterations                 ... OFF
Perturbative natural orbital generation    ... OFF
Printlevel                                 ... 2

Memory handling:
----------------
Maximum memory for working arrays          ...   4500 MB
Data storage in matrix containers          ... UNCOMPRESSED
Data type for integral storage             ... DOUBLE
In-Core Storage of quantities:
   Amplitudes+Sigma Vector      ... YES
   J+K operators                ... YES
   DIIS vectors                 ... YES
   3-external integrals         ... YES
   4-external integrals         ... NO


Initializing the integral package          ... done
Warning: reference  - re-canonicalizations have been set to INT 1 VIRT 1
Fock densities were made 
Making Fock matrix and reference energy:

--------------------------
UNRESTRICTED FOCK OPERATOR
--------------------------

Recanonicalizing the internal orbitals
Recanonicalizing the virtual orbitals
Storing new orbitals
Time needed for Fock operator              ...            1.324 sec
Reference energy                           ...   -193.411836311

-------------------------
SHARK HALF TRANSFORMATION
-------------------------

Number of basis functions                ...    213
Number of operators                      ...      2
   Operator  0:    5-  18

   Operator  1:    5-  17

Integral generator used                  ... SHARK
Contraction scheme used                  ... SEGMENTED CONTRACTION
MaxCore in resort                        ...   9000 MB

Half transformed integrals for op=   0   ... sp.SHARK_MNPQ0.tmp
Resorted half transformed integrals      ... sp._PQMN_0.tmp
Half transformed integrals for op=   1   ... sp.SHARK_MNPQ1.tmp
Resorted half transformed integrals      ... sp._PQMN_1.tmp
Starting integral generation + half trafo... 
Half trafo (segmented) done. Total time =  2.1 sec. integrals=  1.8 sec trafo=  0.3 sec
Starting integral resorting              ... done (  0.2 sec)

SHARK half integral transformation done. Total time =  2.3 sec.

----------------------------------
J-TRAFO SECOND HALF TRANSFORMATION
----------------------------------

Generate (ij|kl)                        ... NO
Generate (ij|ka)                        ... YES
Generate (ij|ab)                        ... YES
Generate (ia|bc)                        ... NO
Generate (ab|cd)                        ... NO
Generate (pq|rs)                        ... NO

Number of operators                     ... 2
   Operator 0                           ...    5-  18 to   19- 212
   PQMN-Container name                  ... sp._PQMN_0.tmp
   IJKA-Container name    op=0,0        ... sp._IJKA_0.tmp
   IJAB-Container name    op=0,0        ... sp._IJAB_0.tmp
   IJKA-Container name    op=0,1        ... sp._IJKA_2.tmp
   IJAB-Container name    op=0,1        ... sp._IJAB_2.tmp
   Operator 1                           ...    5-  17 to   18- 212
   PQMN-Container name                  ... sp._PQMN_1.tmp
   IJKA-Container name    op=1,0        ... sp._IJKA_3.tmp
   IJAB-Container name    op=1,0        ... sp._IJAB_3.tmp
   IJKA-Container name    op=1,1        ... sp._IJKA_1.tmp
   IJAB-Container name    op=1,1        ... sp._IJAB_1.tmp

Starting integral transformations       ... done
Completed Coulomb integral formation in   0.1 sec


-------------------------
SHARK HALF TRANSFORMATION (Exchange order)
-------------------------

Number of basis functions                   ...    213
Number of operators                         ...      2
   Operator  0:    5-  18 (p-index in (p*|q*))
   Operator  0:    5- 212 (q-index in (p*|q*)
   Operator  1:    5-  17 (p-index in (p*|q*))
   Operator  1:    5- 212 (q-index in (p*|q*)
Integral generator used                     ... SHARK
Contraction scheme used                     ... SEGMENTED CONTRACTION
MaxCore in resort                           ...   9000 MB

Half transformed integrals for op=   0      ... sp.SHARK_MNPQ0.tmp
Resorted half transformed integrals         ... sp._PMQN_0.tmp
Half transformed integrals for op=   1      ... sp.SHARK_MNPQ1.tmp
Resorted half transformed integrals         ... sp._PMQN_1.tmp
Half transformed integrals for op=0/1       ... sp.SHARK_MNPQ01.tmp
Resorted half transformed integrals         ... sp._PMQN_2.tmp
Half transformed integrals for op=1/0       ... sp.SHARK_MNPQ10.tmp
Resorted half transformed integrals         ... sp._PMQN_3.tmp

Half trafo (segmented) done. Total time = 10.6 sec. integrals=  2.9 sec trafo=  5.5 sec

----------------------
SHARK INTEGRAL SORTING (Exchange)
----------------------

Input container                             ... sp.SHARK_MNPQ0.tmp
Output container                            ... sp._PMQN_0.tmp
Range of AO-indices                         ...    0 -  212
Range of bra indices i                      ...    5 -   18
Range of ket indices j                      ...    5 -  212
Symmetric i,j range                         ... NO
Number of (i,j) pairs generated             ... 2912
Max Core memory in MB                       ...   9000

Available core memory in MB                 ...   8922.90
MB needed for one item                      ...      0.35
Fixed MB needed                             ...      0.00
Number of items                             ...       364
Number of batches                           ...         1
Items treated per batch                     ...       364
Batch   0                                   ...      0-   363 (   364)
   => Closing output file and leaving

----------------------
SHARK INTEGRAL SORTING (Exchange)
----------------------

Input container                             ... sp.SHARK_MNPQ1.tmp
Output container                            ... sp._PMQN_1.tmp
Range of AO-indices                         ...    0 -  212
Range of bra indices i                      ...    5 -   17
Range of ket indices j                      ...    5 -  212
Symmetric i,j range                         ... NO
Number of (i,j) pairs generated             ... 2704
Max Core memory in MB                       ...   9000

Available core memory in MB                 ...   8923.43
MB needed for one item                      ...      0.35
Fixed MB needed                             ...      0.00
Number of items                             ...       338
Number of batches                           ...         1
Items treated per batch                     ...       338
Batch   0                                   ...      0-   337 (   338)
   => Closing output file and leaving

----------------------
SHARK INTEGRAL SORTING (Exchange)
----------------------

Input container                             ... sp.SHARK_MNPQ01.tmp
Output container                            ... sp._PMQN_2.tmp
Range of AO-indices                         ...    0 -  212
Range of bra indices i                      ...    5 -   18
Range of ket indices j                      ...    5 -  212
Symmetric i,j range                         ... NO
Number of (i,j) pairs generated             ... 2912
Max Core memory in MB                       ...   9000

Available core memory in MB                 ...   8923.95
MB needed for one item                      ...      0.35
Fixed MB needed                             ...      0.00
Number of items                             ...       364
Number of batches                           ...         1
Items treated per batch                     ...       364
Batch   0                                   ...      0-   363 (   364)
   => Closing output file and leaving

----------------------
SHARK INTEGRAL SORTING (Exchange)
----------------------

Input container                             ... sp.SHARK_MNPQ10.tmp
Output container                            ... sp._PMQN_3.tmp
Range of AO-indices                         ...    0 -  212
Range of bra indices i                      ...    5 -   17
Range of ket indices j                      ...    5 -  212
Symmetric i,j range                         ... NO
Number of (i,j) pairs generated             ... 2704
Max Core memory in MB                       ...   9000

Available core memory in MB                 ...   8924.47
MB needed for one item                      ...      0.35
Fixed MB needed                             ...      0.00
Number of items                             ...       338
Number of batches                           ...         1
Items treated per batch                     ...       338
Batch   0                                   ...      0-   337 (   338)
   => Closing output file and leaving
done (  2.5 sec)

SHARK half integral transformation done. Total time = 13.1 sec.

----------------------------------
K-TRAFO SECOND HALF TRANSFORMATION
----------------------------------

Generate (ik|jl)                        ... YES
Generate (ik|ja)                        ... YES
Generate (ia|jb)                        ... YES
Generate (ib|ac)                        ... YES
Generate (ac|bd)                        ... NO
Generate (pr|qs)                        ... NO

Number of operators                     ... 2
   Operator 0                           ...    5-  18 to   19- 212
   Operator 1                           ...    5-  17 to   18- 212

Starting integral transformations       ... done
Completed Exchange integral formation in   1.3 sec


------------------------------
Initializing F12 data (SHARK)
------------------------------

Mapping basis set                  ... done
Dimension of the orbital basis set  = 213
Dimension of the CABS basis set     = 756
Dimension of the AUX basis set      = 615
Threshold for CABS orthogonalization = 1.000e-08
Test shows that OBS-bases are identical for ORCA and SHARK (good)
Test shows that CABS-bases are identical for ORCA and SHARK (good)
Will use an exponential correlation factor -Exp(-gamma r12)/gamma (gamma= 0.900) fit to 6 Gaussians 
Correlation factor:   
  NGauss  :          6      
  Gaussian expansion: 
    a( 0)=    0.1948458954898069  d( 0)=   -0.3837757042467722 
    a( 1)=    0.9387038354476187  d( 1)=   -0.3334018173527373 
    a( 2)=    3.4610351718196344  d( 2)=   -0.1753946778698117 
    a( 3)=   11.7049811259564009  d( 3)=   -0.1006409547412648 
    a( 4)=   44.2276114110074730  d( 4)=   -0.0614475918190023 
    a( 5)=  245.3721697105246733  d( 5)=   -0.0379425511812079 
Calculating one-electron matrices                       ... (SHARK)done (      0.1 sec)
Calculating pre-screening matrices:                     ... 
     (LIBINT-0)       .... 1/r12 done          (      0.1 sec)
     (LIBINT-1)       .... f12/r12 done        (      0.0 sec)
     (LIBINT-2)       .... f12 done            (      0.0 sec)
     (LIBINT-3)       .... f12^2 done          (      0.1 sec)
     (LIBINT-4)       .... [f12,[T1,f12]] done (      0.1 sec)
                                                        ... done (      0.3 sec)
Making CABS spaces                                      ... done (      0.1 sec)
Calculating 2-index 2-center F12 integrals              ... 
Two index explicit correlation integrals  op=0          ...(SHARK-0) done (      0.0 sec)  Metric   done (      0.0 sec)
Two index explicit correlation integrals  op=1          ...(SHARK-1) done (      0.0 sec)  Metric   done (      0.0 sec)
Two index explicit correlation integrals  op=2          ...(SHARK-2) done (      0.0 sec)  Metric   done (      0.0 sec)
Two index explicit correlation integrals  op=3          ...(SHARK-3) done (      0.0 sec)  Metric   done (      0.0 sec)
Two index explicit correlation integrals  op=4          ...(SHARK-4) done (      0.0 sec)  Metric   done (      0.0 sec)
                                                                     done (      0.1 sec)

-----------------------
SPIN UNRESTRICTED GUESS
-----------------------

Spin-components of the MP2 energy:
EMP2(aa)=     -0.095242116
EMP2(bb)=     -0.082738303
EMP2(ab)=     -0.557353696

Initial guess performed in     0.220 sec
E(0)                                       ...   -193.411836311
E(MP2)                                     ...     -0.735334115
Initial E(tot)                             ...   -194.147170425
<T|T>                                      ...      0.248329094
Number of pairs included                   ... 351

------------------------------------------------
                  UHF COUPLED CLUSTER ITERATIONS
------------------------------------------------

Number of amplitudes to be optimized       ...     10083059

Iter       E(tot)           E(Corr)          Delta-E          Residual     Time      <S|S>**1/2
  0   -194.147170432     -0.735334121     -0.000000006      0.023952253   17.92      0.000052953
                           *** Turning on DIIS ***
  1   -194.167958898     -0.756122587     -0.020788466      0.007262003   18.74      0.039653665
  2   -194.187421351     -0.775585040     -0.019462453      0.003532429   18.87      0.049648268
  3   -194.192382908     -0.780546597     -0.004961557      0.001658156   18.76      0.057928031
  4   -194.193447516     -0.781611206     -0.001064609      0.000845473   18.39      0.062081448
  5   -194.193639666     -0.781803355     -0.000192149      0.000504027   18.49      0.064026855
  6   -194.193704603     -0.781868293     -0.000064938      0.000283886   18.85      0.064982895
  7   -194.193713801     -0.781877490     -0.000009198      0.000137283   19.06      0.065396708
  8   -194.193714094     -0.781877783     -0.000000293      0.000053595   18.61      0.065573165
  9   -194.193714686     -0.781878375     -0.000000592      0.000017979   18.51      0.065633488
               --- The Coupled-Cluster iterations have converged ---
--------------------
CC F12/RI CORRECTION
--------------------

Doing density matrix                                    ... done (      0.0 sec)
Calculating Coulomb operators
       .... OBS/OBS done        (      0.6 sec, SHARK-SC)
       .... CABS/OBS done       (      7.6 sec, LIBINT  )
       .... CABS/CABS done      (      9.6 sec, LIBINT  )
Calculating Exchange operators
       .... OBS/OBS done        (      3.2 sec, LIBINT  )
       .... CABS/OBS done       (     16.2 sec, LIBINT  )
       .... CABS/CABS done      (     22.6 sec, LIBINT  )
       .... exchange build done (     42.0 sec)
Completing Fock operators                               ... done (      0.2 sec)
Entering three index integral routine
Three index transformation (OBS,OBS/AUX) for  op=0      ... (SHARK ) done (      0.2 sec)
Three index transformation (OBS,CABS/AUX) for op=0      ... (LIBINT) done (      0.6 sec)
Three index transformation (OBS,OBS/AUX) for  op=1      ... (SHARK ) done (      0.2 sec)
Three index transformation (OBS,CABS/AUX) for op=1      ... (LIBINT) done (      0.9 sec)
Three index transformation (OBS,OBS/AUX) for  op=2      ... (SHARK ) done (      0.2 sec)
Three index transformation (OBS,CABS/AUX) for op=2      ... (LIBINT) done (      0.6 sec)
Three index transformation (OBS,OBS/AUX) for  op=3      ... (SHARK ) done (      0.2 sec)
Three index transformation (OBS,CABS/AUX) for op=3      ... (LIBINT) done (      1.0 sec)
Three index transformation (OBS,OBS/AUX) for  op=4      ... (SHARK ) done (      0.3 sec)
Three index transformation (OBS,CABS/AUX) for op=4      ... (LIBINT) done (      1.2 sec)
Three index transformation (OBS_F,OBS/AUX) for  op=2    ... (LIBINT) done (      0.3 sec)
Three index transformation (OBS_F,CABS/AUX) for op=2    ... (SHARK ) done (      1.7 sec)
Recalculating the K(C) operators (Opt=   AOX)           ... done (      5.1 sec)
Calculating F12 intermediates (incore)                  ... done (      7.5 sec)
     Startup integrals           ...     0.162 sec
     OBS/OBS integrals           ...     0.464 sec
     CABS/OBS integrals          ...     1.247 sec
     CABS/CABS integrals         ...     0.628 sec
     Vij intermediate            ...     0.019 sec
     Xij intermediate            ...     0.020 sec
     Bij intermediate            ...     4.471 sec
     BS-tilde ij intermediate    ...     0.003 sec
     Vbar-ij intermediate        ...     0.202 sec
     Hartree-Fock correction     ...     0.028 sec
Calculating correlation correction                      ... done (    0.001 sec)

F12 correction                   :  -0.098648117803
Hartree-Fock correction          :  -0.010847641097
Sum of the two                   :  -0.109495758900
Total time for F12 correction    :    79.897 sec
  .... cleaning up and leaving CC-F12/RI

----------------------
COUPLED CLUSTER ENERGY
----------------------

Uncorrected 0th order energy               ...   -193.411836311
F12-HF basis set correction                ...     -0.010847641
Corrected 0th order energy                 ...   -193.422683952

Uncorrected correlation energy             ...     -0.781878375
F12-correction to the correlation energy   ...     -0.098648118
Final F12 correlation energy               ...     -0.880526493

E(TOT)-before F12 corrections              ...   -194.193714686
E(TOT)-after HF correction                 ...   -194.204562327
E(TOT)-after all F12 corrections           ...   -194.303210445

Singles norm <S|S>**1/2                    ...      0.065633488 ( 0.031191723, 0.034441765)  
T1 diagnostic                              ...      0.012631171                              

------------------
LARGEST AMPLITUDES
------------------
  17a-> 34a  17b-> 35b       0.067117
  17a-> 27a  17b-> 35b       0.044417
  17a-> 34a  17b-> 26b       0.041956
  18a-> 34a  17b-> 35b       0.035668
  17a-> 27a  17b-> 26b       0.028154
  11b-> 33b  -1b-> -1b       0.027074
  18a-> 34a  17b-> 26b       0.022716
  18a-> 27a  17b-> 35b       0.022272
  17a-> 34a  17b-> 63b       0.021476
  17b-> 33b  -1b-> -1b       0.021049
  17a-> 64a  17b-> 35b       0.020465
  17a-> 34a  11b-> 35b       0.019499
  17a-> 63a  17b-> 35b       0.019176
  11b-> 24b  -1b-> -1b       0.018411
  11a-> 34a  17b-> 35b       0.016205
  17a-> 34a  17b-> 62b       0.016005

----------------------
UHF TRIPLES CORRECTION (Algorithm 1)
----------------------

Multiplier for the singles contribution    ...      1.000000000

SPIN-CASE Alpha-Alpha-Alpha:
10% done
20% done
30% done
40% done
50% done
60% done
70% done
80% done
90% done


SPIN-CASE Beta-Beta-Beta:
10% done
20% done
30% done
40% done
50% done
60% done
70% done
80% done
90% done


SPIN-CASE Alpha-Alpha-Beta:
10% done
20% done
30% done
40% done
50% done
60% done
70% done
80% done
90% done


SPIN-CASE Beta-Beta-Alpha:
10% done
20% done
30% done
40% done
50% done
60% done
70% done
80% done
90% done


Triples Correction (T)                     ...     -0.034483962
    alpha-alpha-alpha ... -0.001067323 (  3.1%)
    alpha-alpha-beta  ... -0.016865974 ( 48.9%)
    alpha-beta -beta  ... -0.015671396 ( 45.4%)
    beta -beta -beta  ... -0.000879269 (  2.5%)
Scaling of triples based on CCSD energies (Peterson et al. Molecular Physics 113, 1551 (2015))
[...]
      px      :     0.000676
      py      :    -0.001169
 11 H s       :     0.046280  s :     0.046280
      pz      :     0.000649  p :    -0.000308
      px      :     0.000212
      py      :    -0.001169


                     *******************************
                     * LOEWDIN POPULATION ANALYSIS *
                     *******************************

-----------------------------------------
LOEWDIN ATOMIC CHARGES AND SPIN DENSITIES
-----------------------------------------
   0 C :   -0.026285   -0.001524
   1 C :   -0.026285   -0.001524
   2 H :    0.014552   -0.000646
   3 C :   -0.057786    0.051541
   4 H :    0.014552   -0.000646
   5 C :    0.051432    0.737226
   6 H :    0.025871    0.028803
   7 H :    0.025846    0.028679
   8 C :   -0.057787    0.051541
   9 H :   -0.015826    0.049070
  10 H :    0.025871    0.028802
  11 H :    0.025847    0.028679

--------------------------------------------------
LOEWDIN REDUCED ORBITAL CHARGES AND SPIN DENSITIES
--------------------------------------------------
CHARGE
  0 C s       :     2.734123  s :     2.734123
      pz      :     0.907259  p :     2.863469
      px      :     0.913207
      py      :     1.043003
      dz2     :     0.053425  d :     0.428693
      dxz     :     0.056602
      dyz     :     0.113274
      dx2y2   :     0.087024
      dxy     :     0.118368
  1 C s       :     2.734123  s :     2.734123
      pz      :     0.907286  p :     2.863469
      px      :     0.913149
      py      :     1.043034
      dz2     :     0.053373  d :     0.428693
      dxz     :     0.056597
      dyz     :     0.113320
      dx2y2   :     0.087099
      dxy     :     0.118304
  2 H s       :     0.787422  s :     0.787422
      pz      :     0.067673  p :     0.198027
      px      :     0.069118
      py      :     0.061236
  3 C s       :     2.681928  s :     2.681928
      pz      :     0.976841  p :     2.928635
      px      :     0.974053
      py      :     0.977740
      dz2     :     0.064199  d :     0.447224
      dxz     :     0.085659
      dyz     :     0.115503
      dx2y2   :     0.067821
      dxy     :     0.114043
  4 H s       :     0.787422  s :     0.787422
      pz      :     0.067706  p :     0.198026
      px      :     0.069046
      py      :     0.061274
  5 C s       :     2.759790  s :     2.759790
      pz      :     0.921832  p :     2.810057
      px      :     0.929726
      py      :     0.958498
      dz2     :     0.046816  d :     0.378721
      dxz     :     0.066828
      dyz     :     0.085807
      dx2y2   :     0.091470
      dxy     :     0.087800
  6 H s       :     0.773568  s :     0.773568
      pz      :     0.062000  p :     0.200561
      px      :     0.071549
      py      :     0.067012
  7 H s       :     0.773612  s :     0.773612
      pz      :     0.072880  p :     0.200541
      px      :     0.060468
      py      :     0.067193
  8 C s       :     2.681928  s :     2.681928
      pz      :     0.976844  p :     2.928635
      px      :     0.974049
      py      :     0.977742
      dz2     :     0.064248  d :     0.447224
      dxz     :     0.085671
      dyz     :     0.115416
      dx2y2   :     0.067716
      dxy     :     0.114173
  9 H s       :     0.797538  s :     0.797538
      pz      :     0.084014  p :     0.218289
      px      :     0.085519
      py      :     0.048756
 10 H s       :     0.773568  s :     0.773568
      pz      :     0.061973  p :     0.200561
      px      :     0.071475
      py      :     0.067113
 11 H s       :     0.773612  s :     0.773612
      pz      :     0.072918  p :     0.200542
      px      :     0.060519
      py      :     0.067104

SPIN
  0 C s       :     0.000119  s :     0.000119
      pz      :     0.000110  p :     0.000419
      px      :     0.000177
      py      :     0.000131
      dz2     :    -0.000840  d :    -0.002061
      dxz     :    -0.000686
      dyz     :     0.000178
      dx2y2   :    -0.000825
      dxy     :     0.000111
  1 C s       :     0.000119  s :     0.000119
      pz      :     0.000110  p :     0.000419
      px      :     0.000178
      py      :     0.000131
      dz2     :    -0.000839  d :    -0.002061
      dxz     :    -0.000685
      dyz     :     0.000178
      dx2y2   :    -0.000824
      dxy     :     0.000110
  2 H s       :    -0.000503  s :    -0.000503
      pz      :    -0.000078  p :    -0.000143
      px      :    -0.000077
      py      :     0.000012
  3 C s       :    -0.004432  s :    -0.004432
      pz      :    -0.005720  p :    -0.023394
      px      :    -0.005936
      py      :    -0.011738
      dz2     :     0.008197  d :     0.079366
      dxz     :     0.000908
      dyz     :     0.034912
      dx2y2   :     0.003380
      dxy     :     0.031970
  4 H s       :    -0.000503  s :    -0.000503
      pz      :    -0.000078  p :    -0.000143
      px      :    -0.000077
      py      :     0.000012
  5 C s       :     0.026749  s :     0.026749
      pz      :     0.359874  p :     0.708989
      px      :     0.328804
      py      :     0.020310
      dz2     :     0.003032  d :     0.001488
      dxz     :    -0.001567
      dyz     :    -0.000258
      dx2y2   :     0.000647
      dxy     :    -0.000366
  6 H s       :     0.026026  s :     0.026026
      pz      :     0.001720  p :     0.002776
      px      :    -0.000220
      py      :     0.001276
  7 H s       :     0.025930  s :     0.025930
      pz      :    -0.000186  p :     0.002749
      px      :     0.001658
      py      :     0.001277
  8 C s       :    -0.004432  s :    -0.004432
      pz      :    -0.005711  p :    -0.023394
      px      :    -0.005955
      py      :    -0.011727
      dz2     :     0.008143  d :     0.079366
      dxz     :     0.000914
      dyz     :     0.034941
      dx2y2   :     0.003465
      dxy     :     0.031904
  9 H s       :    -0.019741  s :    -0.019741
      pz      :     0.035298  p :     0.068811
      px      :     0.032694
      py      :     0.000819
 10 H s       :     0.026026  s :     0.026026
      pz      :     0.001716  p :     0.002776
      px      :    -0.000225
      py      :     0.001285
 11 H s       :     0.025930  s :     0.025930
      pz      :    -0.000183  p :     0.002749
      px      :     0.001666
      py      :     0.001266


                      *****************************
                      * MAYER POPULATION ANALYSIS *
                      *****************************

  NA   - Mulliken gross atomic population
  ZA   - Total nuclear charge
  QA   - Mulliken gross atomic charge
  VA   - Mayer's total valence
  BVA  - Mayer's bonded valence
  FA   - Mayer's free valence

  ATOM       NA         ZA         QA         VA         BVA        FA
  0 C      6.2139     6.0000    -0.2139     4.1335     3.7276     0.4059
  1 C      6.2139     6.0000    -0.2139     4.1335     3.7276     0.4059
  2 H      0.8468     1.0000     0.1532     0.9753     0.9091     0.0662
  3 C      6.1270     6.0000    -0.1270     4.2045     3.8560     0.3484
  4 H      0.8468     1.0000     0.1532     0.9753     0.9091     0.0662
  5 C      6.3090     6.0000    -0.3090     4.1131     3.0009     1.1122
  6 H      0.8702     1.0000     0.1298     0.9940     0.9210     0.0730
  7 H      0.8702     1.0000     0.1298     0.9939     0.9210     0.0729
  8 C      6.1270     6.0000    -0.1270     4.2045     3.8560     0.3484
  9 H      0.8348     1.0000     0.1652     0.9757     0.9036     0.0720
 10 H      0.8702     1.0000     0.1298     0.9940     0.9210     0.0730
 11 H      0.8702     1.0000     0.1298     0.9939     0.9210     0.0729

  Mayer bond orders larger than 0.100000
B(  0-C ,  1-C ) :   1.7638 B(  0-C ,  2-H ) :   0.8875 B(  0-C ,  8-C ) :   1.0430 
B(  1-C ,  3-C ) :   1.0430 B(  1-C ,  4-H ) :   0.8875 B(  3-C ,  5-C ) :   1.0178 
B(  3-C ,  6-H ) :   0.8787 B(  3-C ,  7-H ) :   0.8789 B(  5-C ,  8-C ) :   1.0178 
B(  5-C ,  9-H ) :   0.8951 B(  8-C , 10-H ) :   0.8787 B(  8-C , 11-H ) :   0.8789 




--------------------------------------------------------------------------------
                                    TIMINGS
--------------------------------------------------------------------------------


Total execution time                   ...      443.629 sec

Fock Matrix Formation                  ...        1.324 sec (  0.3%)
Initial Guess                          ...        0.220 sec (  0.0%)
DIIS Solver                            ...        5.378 sec (  1.2%)
State Vector Update                    ...        0.181 sec (  0.0%)
Sigma-vector construction              ...      180.650 sec ( 40.7%)
  <0|H|D>                              ...        0.048 sec (  0.0% of sigma)
  <D|H|D>(0-ext Fock)                  ...        0.304 sec (  0.2% of sigma)
  <D|H|D>(0-ext)                       ...        2.131 sec (  1.2% of sigma)
  <D|H|D>(2-ext Fock)                  ...        0.274 sec (  0.2% of sigma)
  <D|H|D>(2-ext)                       ...       15.567 sec (  8.6% of sigma)
  <D|H|D>(4-ext)                       ...       65.589 sec ( 36.3% of sigma)
  <S|H|0>                              ...       47.287 sec ( 26.2% of sigma)
  <S|H|S>                              ...        0.002 sec (  0.0% of sigma)
  <S|H|D>(1-ext)                       ...        0.077 sec (  0.0% of sigma)
  <D|H|S>(1-ext)                       ...        0.454 sec (  0.3% of sigma)
  Fock-dressing                        ...       10.586 sec (  5.9% of sigma)
  (ik|jl)-dressing                     ...        6.672 sec (  3.7% of sigma)
  (ij|ab),(ia|jb)-dressing             ...       28.500 sec ( 15.8% of sigma)
  Pair energies                        ...        0.063 sec (  0.0% of sigma)
Total Time for computing (T)           ...      156.406 sec ( 35.3% of ALL)
  I/O of integral and amplitudes       ...       14.690 sec (  9.4% of (T))
  External N**7 contributions          ...       93.613 sec ( 59.9% of (T))
  Internal N**7 contributions          ...        8.781 sec (  5.6% of (T))
  N**6 triples energy contributions    ...       39.073 sec ( 25.0% of (T))


Maximum memory used throughout the entire MDCI-calculation: 3641.1 MB

-------------------------   --------------------
FINAL SINGLE POINT ENERGY      -194.337694406862
-------------------------   --------------------



           ************************************************************
           *        Program running with 8 parallel MPI-processes     *
           *              working on a common directory               *
           ************************************************************

------------------------------------------------------------------------------
                              ORCA PROPERTY CALCULATIONS
------------------------------------------------------------------------------

GBWName                                 ... sp.gbw
Number of atoms                         ...     12
Number of basis functions               ...    243
Max core memory                         ...   9000 MB

Electric properties:
Dipole moment                           ... YES
Quadrupole moment                       ...  NO
Static polarizability (Dipole/Dipole)   ...  NO
Static polarizability (Dipole/Quad.)    ...  NO
Static polarizability (Quad./Quad.)     ...  NO
Static polarizability (Velocity)        ...  NO
Static hyperpolarizability              ...  NO

Atomic electric properties:
Dipole moment                           ...  NO
Quadrupole moment                       ...  NO
Static polarizability                   ...  NO

Choice of electric origin               ... Center of mass
Position of electric origin             ...    -1.366987    -0.001347     0.334709

General magnetic properties:
Magnetizability                         ...  NO

EPR properties:
g-Tensor (aka g-matrix)                 ...  NO
Zero-Field splitting spin-orbit         ...  NO
Zero-field splitting spin-spin          ...  NO
Hyperfine couplings                     ...  NO (   0 nuclei)
Quadrupole couplings                    ...  NO (   0 nuclei)
Contact density                         ...  NO (   0 nuclei)

NMR properties:
Chemical shifts                         ...  NO (   0 nuclei)
Spin-rotation constants                 ...  NO (   0 nuclei)
Spin-spin couplings                     ...  NO (   0 nuclei,    0 pairs)

Choice of magnetic origin               ... GIAO
Position of magnetic origin             ...     0.000000     0.000000     0.000000

Properties with geometric perturbations:
SCF Hessian                             ...  NO
IR spectrum                             ...  NO
VCD spectrum                            ...  NO
X-ray spectroscopy properties:
SCF XES/XAS/RIXS spectra                ...  NO

SCF SOC stabilization energy            ...  NO
Diagonal Born-Oppenheimer correction    ...  NO

-------------
DIPOLE MOMENT
-------------

Method             : SCF
Type of density    : Electron Density
Multiplicity       :   2
Irrep              :   0
Energy             :  -193.4118363120742572 Eh
Basis              : AO
                                X                 Y                 Z
Electronic contribution:     -0.462858050       0.000267683      -0.437730241
Nuclear contribution   :      0.494699383      -0.000286661       0.467514788
                        -----------------------------------------
Total Dipole Moment    :      0.031841333      -0.000018978       0.029784547
                        -----------------------------------------
Magnitude (a.u.)       :      0.043600345
Magnitude (Debye)      :      0.110823270



--------------------
Rotational spectrum 
--------------------
 
Rotational constants in cm-1:             0.265417             0.247522             0.134396 
Rotational constants in MHz :          7957.012020          7420.530521          4029.095520 

Dipole components along the rotational axes: 
x,y,z [a.u.] :    -0.000000    -0.043599    -0.000372 
x,y,z [Debye]:    -0.000001    -0.110819    -0.000946 

 

-------------
DIPOLE MOMENT
-------------

Method             : MDCI(SD)
Type of density    : Electron Density
Multiplicity       :   2
Level              : Linearized density
Irrep              :   0
Energy             :     0.0000000000000000 Eh
Basis              : AO
                                X                 Y                 Z
Electronic contribution:     -0.481467247       0.000278158      -0.455507855
Nuclear contribution   :      0.494699383      -0.000286661       0.467514788
                        -----------------------------------------
Total Dipole Moment    :      0.013232136      -0.000008503       0.012006933
                        -----------------------------------------
Magnitude (a.u.)       :      0.017867734
Magnitude (Debye)      :      0.045416171



--------------------
Rotational spectrum 
--------------------
 
Rotational constants in cm-1:             0.265417             0.247522             0.134396 
Rotational constants in MHz :          7957.012020          7420.530521          4029.095520 

Dipole components along the rotational axes: 
x,y,z [a.u.] :    -0.000001    -0.017863    -0.000423 
x,y,z [Debye]:    -0.000001    -0.045403    -0.001075 

 

Dipole moment calculation done in   0.0 sec 

Maximum memory used throughout the entire PROP-calculation: 12.9 MB

--------------------------------
SUGGESTED CITATIONS FOR THIS RUN
--------------------------------

Below you find a list of papers that are relevant to this ORCA run
We neither can nor want to force you to cite these papers, but we appreciate if you do
You receive ORCA, which is the product of decades of hard work by many enthusiastic individuals, for free
The only thing we kindly ask in return is that you cite our papers,
We deeply appreciate it, if you show your appreciation for ORCA by not just citing the generic ORCA reference.

Please note that relegating all ORCA citations to the supporting information does *not* help us.
SI sections are not indexed - citations you put there will not count into any citation statistics
But we need these citations in order to attract the funding resources that allow us to do what we are doing

Therefore, if you are a happy ORCA user, please consider citing a few of the papers listed below in the main body of your paper

In addition to the list printed below, the program has created the file sp.bibtex that contains the list in bibtex format
You can import this file easily into all common literature databanks and citation aid programs

It goes without saying that in many instances, there are alternative algorithms to achieve similar
results as the ones you have gotten from ORCA. It is, of course, also the case that in some instances
ORCA just re-implements algorithms worked out by others. We are fully aware of that and we are also
fully appreciative of our colleagues work. Hence this citation list should not be read as indicating
that the listed papers, which are focused on our own work, are the only ones worth citing. It simply
meant to make it easier for users to cite ORCA specific papers. It is not a substitute for doing your
own literature research and citing the relevant literature in a scientifically appropriate manner.

List of essential papers. We consider these as the minimum necessary citations

  1. Neese, F.
     Software update: the ORCA program system, version 6.0
     WIRES Comput. Molec. Sci. 2025 15(1), e70019
     doi.org/10.1002/wcms.70019

List of papers to cite with high priority. The work reported in these papers was absolutely
necessary for this run to complete.
Our perspective: the developers of density functionals and basis sets usually get cited in chemistry papers
Good! But without the algorithms to do something with them, the functionals or basis sets would not do anything.
Hence, in our opinion, the algorithm design and method developments papers are equally worthy of getting cited

  1. Pavosevic, F.; Neese, F.; Valeev, E.F.
     Geminal-spanning orbitals make explicitly correlated reduced-scaling coupled-cluster methods robust, yet simple
     J. Chem. Phys. 2014 141 , 
     doi.org/10.1063/1.4890002
  2. Neese, F.
     The SHARK Integral Generation and Digestion System
     J. Comp. Chem. 2022 44(3), 381
     doi.org/10.1002/jcc.26942

List of suggested additional citations. These are papers that are important in the 'surrounding' of 
of this run, or papers that preceded the highly important papers. If you like your results we are grateful for a citation.

  1. Neese, F.
     The ORCA program system
     WIRES Comput. Molec. Sci. 2012 2(1), 73-78
     doi.org/10.1002/wcms.81
  2. Neese, F.
     Software update: the ORCA program system, version 4.0
     WIRES Comput. Molec. Sci. 2018 8(1), 1-6
     doi.org/10.1002/wcms.1327
  3. Neese, F.; Wennmohs, F.; Becker, U.; Riplinger, C.
     The ORCA quantum chemistry program package
     J. Chem. Phys. 2020 152(22), 224108
     doi.org/10.1063/5.0004608
  4. Neese, F.
     Software update: The ORCA program system—Version 5.0
     WIRES Comput. Molec. Sci. 2022 12(1), e1606
     doi.org/10.1002/wcms.1606

List of optional additional citations

  1. Neese, F.
     Approximate second-order SCF convergence for spin unrestricted wavefunctions
     Chem. Phys. Lett. 2000 325(1-3), 93-98
     doi.org/10.1016/s0009-2614(00)00662-x

Timings for individual modules:

Sum of individual times          ...      468.788 sec (=   7.813 min)
Startup calculation              ...        2.778 sec (=   0.046 min)   0.6 %
SCF iterations                   ...       13.548 sec (=   0.226 min)   2.9 %
Property integrals               ...        1.780 sec (=   0.030 min)   0.4 %
Property calculations            ...        3.430 sec (=   0.057 min)   0.7 %
MDCI module                      ...      447.252 sec (=   7.454 min)  95.4 %
                             ****ORCA TERMINATED NORMALLY****
TOTAL RUN TIME: 0 days 0 hours 7 minutes 50 seconds 530 msec
