
                                 *****************
                                 * O   R   C   A *
                                 *****************

                                            #,                                       
                                            ###                                      
                                            ####                                     
                                            #####                                    
                                            ######                                   
                                           ########,                                 
                                     ,,################,,,,,                         
                               ,,#################################,,                 
                          ,,##########################################,,             
                       ,#########################################, ''#####,          
                    ,#############################################,,   '####,        
                  ,##################################################,,,,####,       
                ,###########''''           ''''###############################       
              ,#####''   ,,,,##########,,,,          '''####'''          '####       
            ,##' ,,,,###########################,,,                        '##       
           ' ,,###''''                  '''############,,,                           
         ,,##''                                '''############,,,,        ,,,,,,###''
      ,#''                                            '''#######################'''  
     '                                                          ''''####''''         
             ,#######,   #######,   ,#######,      ##                                
            ,#'     '#,  ##    ##  ,#'     '#,    #''#        ,####,    ,#,          
            ##       ##  ##   ,#'  ##            #'  '#       #'       ,# #          
            ##       ##  #######   ##           ,######,      #####,      #          
            '#,     ,#'  ##    ##  '#,     ,#' ,#      #,     #,   #      #          
             '#######'   ##     ##  '#######'  #'      '#     '####' #    #          



                #########################################################
                #                        -***-                          #
                #          Department of theory and spectroscopy        #
                #                                                       #
                #                      Frank Neese                      #
                #                                                       #
                #     Directorship, Architecture, Infrastructure        #
                #                    SHARK, DRIVERS                     #
                #        Core code/Algorithms in most modules           #
                #                                                       #
                #        Max Planck Institute fuer Kohlenforschung      #
                #                Kaiser Wilhelm Platz 1                 #
                #                 D-45470 Muelheim/Ruhr                 #
                #                      Germany                          #
                #                                                       #
                #                  All rights reserved                  #
                #                        -***-                          #
                #########################################################


                         Program Version 6.1.1  -  RELEASE   -
                                (GIT: $487d211c$)
                          ($2025-11-21 10:33:24 +0100$)


 With contributions from (in alphabetic order):
[Max-Planck-Institut fuer Kohlenforschung]                               
  Daniel Aravena         : Magnetic Suceptibility                        
  Michael Atanasov       : Ab Initio Ligand Field Theory (pilot matlab implementation)
  Alexander A. Auer      : GIAO ZORA, VPT2 properties, NMR spectrum      
  Ute Becker             : All parallelization in ORCA, NUMFREQ, NUMCALC 
  Giovanni Bistoni       : ED, misc. LED, open-shell LED, HFLD           
  Dmytro Bykov           : pre 5.0 version of the SCF Hessian            
  Marcos Casanova-Páez   : Triplet and SCS-CIS(D). UHF-(DLPNO)-IP/EA/STEOM-CCSD. UHF-CVS-IP/STEOM-CCSD   
  Vijay G. Chilkuri      : MRCI spin determinant printing, contributions to CSF-ICE 
  Pauline Colinet        : FMM embedding                                 
  Dipayan Datta          : RHF DLPNO-CCSD density                        
  Achintya Kumar Dutta   : EOM-CC, STEOM-CC                              
  Nicolas Foglia         : Exact transition moments, OPA infrastructure, MCD improvements    
  Dmitry Ganyushin       : Spin-Orbit,Spin-Spin,Magnetic field MRCI      
  Miquel Garcia-Rates    : C-PCM and meta-GGA Hessian, CCSD/C-PCM, Gaussian charge scheme 
  Tiago L. C. Gouveia    : GS-ROHF, GS-ROCIS                             
  Yang Guo               : DLPNO-NEVPT2, F12-NEVPT2, CIM, IAO-localization        
  Andreas Hansen         : Spin unrestricted coupled pair/coupled cluster methods 
  Ingolf Harden          : AUTO-CI MPn and infrastructure                
  Benjamin Helmich-Paris : MC-RPA, TRAH-(SCF,CASSCF), AVAS, COSX integrals, SCF dyn. polar., MC-PDFT, srDFT 
  Lee Huntington         : MR-EOM, pCC                                   
  Robert Izsak           : Overlap fitted RIJCOSX, COSX-SCS-MP3, EOM     
  Riya Kayal             : Wick's Theorem for AUTO-CI, AUTO-CI UHF-CCSDT 
  Emily Kempfer          : AUTO-CI RHF CISDT and CCSDT, approximate NEVPT4
  Christian Kollmar      : KDIIS, OOCD, Brueckner-CCSD(T), CCSD density, CASPT2, CASPT2-K, improved NEVPT2 
  Axel Koslowski         : Symmetry handling                             
  Simone Kossmann        : meta-GGA functionals, TD-DFT gradient, OOMP2, (MP2 Hessian; deprecated post 5.0) 
  Lucas Lang             : DCDCAS, Hyperfine gauge corrections, ICE-SOC+SSC
  Marvin Lechner         : AUTO-CI (C++ implementation), FIC-MRCC        
  Spencer Leger          : CASSCF response                               
  Dagmar Lenk            : GEPOL surface, SMD, ORCA-2-JSON               
  Dimitrios Liakos       : Extrapolation schemes; Compound Job, Property file
  Dimitrios Manganas     : Further ROCIS development; embedding schemes. LFT, Crystal Embedding 
  Dimitrios Pantazis     : SARC Basis sets                               
  Anastasios Papadopoulos: AUTO-CI, single reference methods and gradients 
  Taras Petrenko         : pre 6.0 DFT Hessian and TD-DFT gradient,  ECA, NRVS 
  Petra Pikulova         : Analytic Raman intensities                    
  Peter Pinski           : DLPNO-MP2, DLPNO-MP2 Gradient                 
  Shashank Vittal Rao    : ES-AILFT, MagRelax                            
  Christoph Reimann      : Effective Core Potentials                     
  Marius Retegan         : Local ZFS, SOC                                
  Christoph Riplinger    : Optimizer, TS searches, QM/MM, DLPNO-CCSD(T), (RO)-DLPNO pert. Triples 
  Michael Roemelt        : Original ROCIS implementation, recursive CI coupling coefficients
  Masaaki Saitow         : Open-shell DLPNO-CCSD energy and density      
  Barbara Sandhoefer     : DKH picture change effects                    
  Yorick L. A. Schmerwitz: GMF and freeze-and-release deltaSCF, NEB S-IDPP initial path                    
  Kantharuban Sivalingam : CASSCF convergence/infrastructure, NEVPT2, NEVPT3, NEVPT4(SD), FIC-MRCI and CEPA variants
  Bernardo de Souza      : ESD, SOC TD-DFT                               
  Georgi L. Stoychev     : AutoAux, RI-MP2 NMR, DLPNO-MP2 response, X2C  
  Van Anh Tran           : RI-MP2 g-tensors                              
  Willem Van den Heuvel  : Paramagnetic NMR                              
  Zikuan Wang            : NOTCH, Electric field optimization            
  Frank Wennmohs         : Technical directorship and infrastructure     
  Hang Xu                : AUTO-CI-Response properties                   
                                                                         
[FACCTs GmbH]                                                            
  Markus Bursch, Nicolas Foglia, Miquel Garcia-Rates, Ingolf Harden, Hagen Neugebauer, Anastasios Papadopoulos, 
  Christoph Riplinger, Bernardo de Souza, Georgi L. Stoychev                                                    
                                                                 
  APM, various basis sets, CI-OPT, improved COSX, DLPNO-Multilevel,           
  DOCKER, DRACO, updates on ESD, Fragmentator, GOAT, IRC, LR-CPCM, L-BFGS, MBIS, meta-GGA TD-DFT gradient, ML-optimized integration grids, 
  MM, NACMEs, nearIR, NEB, NEB-TS, NL-DFT gradient (VV10), 2- and 3-layer-ONIOM, interface openCOSMO-RS, QMMM,   
  Crystal-QMMM, RESP, rigid body optimization, SF, symmetry and pop. for TD-DFT, various functionals, SOLVATOR                                   
                                                                         
[Other institutions]                                                     
  V. Asgeirsson          : NEB                                           
  Christoph Bannwarth    : sTDA-DFT, sTD-DFT, PBEh-3c, B97-3c, D3        
  Giovanni Bistoni       : ETS/NOCV, ADLD/ADEX, COVALED                  
  Martin Brehm           : Molecular dynamics                            
  Ronald Cardenas        : ETS/NOCV                                      
  Martina Colucci        : COVALED                                       
  Sebastian Ehlert       : rSCAN, r2SCAN, r2SCAN-3c, D4, dhf basis sets  
  Marvin Friede          : D4 for Fr, Ra, Ac-Lr                          
  Lars Goerigk           : TD-DFT with DH, B97 family of functionals     
  Stefan Grimme          : VdW corrections, initial TS optimization, DFT functionals, gCP, sTDA/sTD-DF 
  Waldemar Hujo          : DFT-NL                                        
  H. Jonsson             : NEB                                           
  Holger Kruse           : gCP                                           
  Marcel Mueller         : wB97X-3c, vDZP basis set                      
  Hagen Neugebauer       : wr2SCAN, Native XTB                           
  Gianluca Regni         : ADLD/ADEX                                     
  Tobias Risthaus        : pre 6.0 range-separated hybrid DFT and stability analysis
  Lukas Wittmann         : regularized MP2, r2SCAN double-hybrids, wr2SCAN        
                                                                         
We gratefully acknowledge several colleagues who have allowed us to      
interface, adapt or use parts of their codes:                            
  Ed Valeev, F. Pavosevic, A. Kumar             : LibInt (2-el integral package), F12 methods 
  Garnet Chan, S. Sharma, J. Yang, R. Olivares  : DMRG                   
  Ulf Ekstrom                                   : XCFun DFT Library      
  Mihaly Kallay                                 : mrcc  (arbitrary order and MRCC methods)
  Frank Weinhold                                : gennbo (NPA and NBO analysis)           
  Simon Mueller                                 : openCOSMO-RS                            
  Christopher J. Cramer and Donald G. Truhlar   : smd solvation model                     
  S Lehtola, MJT Oliveira, MAL Marques          : LibXC Library                           
  Liviu Ungur et al                             : ANISO software                          


 Your calculation uses the libint2 library for the computation of 2-el integrals
 For citations please refer to: http://libint.valeyev.net

 Your ORCA version has been built with support for libXC version: 7.0.0
 For citations please refer to: https://libxc.gitlab.io

 This ORCA versions uses:
   CBLAS   interface :  Fast vector & matrix operations
   LAPACKE interface :  Fast linear algebra routines
   SCALAPACK package :  Parallel linear algebra routines
   Shared memory     :  Shared parallel matrices
   BLAS/LAPACK       :  OpenBLAS 0.3.29  USE64BITINT DYNAMIC_ARCH NO_AFFINITY SkylakeX SINGLE_THREADED
        Core in use  :  SkylakeX
   Copyright (c) 2011-2014, The OpenBLAS Project


  ***********************************
  * Starting time: Thu Mar 12 11:27:45 2026
  * Host name:     c5-8
  * Process ID:    1360499
  * Working dir.:  /tmp/lscratch/avcopan/43549997
  ***********************************

NOTE: MaxCore=9000 MB was set to SCF,MP2,MDCI,CIPSI,MRCI,RASCI and CIS
      => If you want to overwrite this, your respective input block should be placed after the MaxCore statement
================================================================================

----- Orbital basis set information -----
Your calculation utilizes the basis: cc-pVDZ-F12 

----- AuxC basis set information -----
Your calculation utilizes the auxiliary basis: cc-pVTZ/C 
  Obtained from the EMSL Basis Set Exchange (bse.pnl.gov) Feb. 2017
  H-He, B-F, Al-Ar, Ga-Kr : F. Weigend, A. Kohn, C. Hattig, J. Chem. Phys. 116, 3175 (2002)
             Li-Be, Na-Mg : C. Haettig, Phys. Chem. Chem. Phys. 7, 59 (2005)
                       Ne : C. Haettig, Phys. Chem. Chem. Phys. 7, 59 (2005)
                            F. Weigend, A. Kohn, C. Hattig, J. Chem. Phys. 116, 3175 (2002)
                    Sc-Zn : J. G. Hill, J. A. Platts, J. Chem. Phys. 128, 044104 (2008)

----- CABS information -----
Your calculation utilizes the basis: cc-pVDZ-F12 


                    <<< The CABS basis set will be decontracted >>>

================================================================================
                                        WARNINGS
                       Please study these warnings very carefully!
================================================================================


WARNING: Post HF methods need fully converged wavefunctions
  ===> : Setting SCFConvForced true
         You can overwrite this default with %scf ConvForced false 


WARNING: MDCI localization with Augmented Hessian Foster-Boys
  ===> : Switching off randomization!

WARNING: UseCISUpdate is  only available for RHF calculations...
  ===> : Setting UseCISUpdate = false 

================================================================================
                                       INPUT FILE
================================================================================
NAME = sp.inp
|  1> # 
|  2> % MaxCore 9000
|  3> ! PAL8
|  4> ! uhf ccsd(t)-f12/ri cc-pvdz-f12 cc-pvdz-f12-cabs cc-pvtz/c
|  5> * xyz 0 2
|  6> C   -1.440959  -0.667693  -0.549040
|  7> C   -1.441245   0.667185  -0.549181
|  8> H   -2.102769  -1.288457  -1.140062
|  9> C   -0.426905   1.233486   0.413065
| 10> H   -2.103124   1.287541  -1.140553
| 11> C    0.407292   0.000278   0.786985
| 12> H    0.183878   2.025614  -0.026660
| 13> H   -0.921963   1.662742   1.293041
| 14> C   -0.426421  -1.233351   0.413379
| 15> H    1.329223   0.000396   0.077494
| 16> H    0.800895   0.000483   1.803406
| 17> H    0.184669  -2.025360  -0.026133
| 18> H   -0.921326  -1.662565   1.293461
| 19> O    2.548136   0.000037  -0.666243
| 20> H    3.134847  -0.000115   0.104704
| 21> *
| 22> 
| 23> 
| 24>                          ****END OF INPUT****
================================================================================

                       ****************************
                       * Single Point Calculation *
                       ****************************

---------------------------------
CARTESIAN COORDINATES (ANGSTROEM)
---------------------------------
  C     -1.440959   -0.667693   -0.549040
  C     -1.441245    0.667185   -0.549181
  H     -2.102769   -1.288457   -1.140062
  C     -0.426905    1.233486    0.413065
  H     -2.103124    1.287541   -1.140553
  C      0.407292    0.000278    0.786985
  H      0.183878    2.025614   -0.026660
  H     -0.921963    1.662742    1.293041
  C     -0.426421   -1.233351    0.413379
  H      1.329223    0.000396    0.077494
  H      0.800895    0.000483    1.803406
  H      0.184669   -2.025360   -0.026133
  H     -0.921326   -1.662565    1.293461
  O      2.548136    0.000037   -0.666243
  H      3.134847   -0.000115    0.104704

----------------------------
CARTESIAN COORDINATES (A.U.)
----------------------------
  NO LB      ZA    FRAG     MASS         X           Y           Z
   0 C     6.0000    0    12.011   -2.723018   -1.261757   -1.037535
   1 C     6.0000    0    12.011   -2.723558    1.260797   -1.037802
   2 H     1.0000    0     1.008   -3.973658   -2.434831   -2.154405
   3 C     6.0000    0    12.011   -0.806734    2.330951    0.780580
   4 H     1.0000    0     1.008   -3.974328    2.433100   -2.155333
   5 C     6.0000    0    12.011    0.769670    0.000525    1.487186
   6 H     1.0000    0     1.008    0.347479    3.827856   -0.050380
   7 H     1.0000    0     1.008   -1.742258    3.142127    2.443493
   8 C     6.0000    0    12.011   -0.805819   -2.330696    0.781173
   9 H     1.0000    0     1.008    2.511867    0.000748    0.146442
  10 H     1.0000    0     1.008    1.513472    0.000913    3.407943
  11 H     1.0000    0     1.008    0.348974   -3.827376   -0.049384
  12 H     1.0000    0     1.008   -1.741054   -3.141793    2.444287
  13 O     8.0000    0    15.999    4.815279    0.000070   -1.259017
  14 H     1.0000    0     1.008    5.924002   -0.000217    0.197862

--------------------------------
INTERNAL COORDINATES (ANGSTROEM)
--------------------------------
 C      0   0   0     0.000000000000     0.00000000     0.00000000
 C      1   0   0     1.334878038085     0.00000000     0.00000000
 H      1   2   0     1.082888463453   124.96386616     0.00000000
 C      2   1   3     1.508475993418   112.03674947   178.27488343
 H      2   1   3     1.082887907293   124.96391877     0.00000000
 C      4   2   1     1.535090476966   102.66219239    11.66121563
 H      4   2   1     1.092648487437   113.03718559   132.66098886
 H      4   2   1     1.097133035450   110.79936094   252.67601797
 C      1   2   3     1.508478259031   112.03650928   181.72796067
 H      6   4   2     1.163328956816   106.38073739    95.03015058
 H      6   4   2     1.089970188985   115.03868439   212.56968846
 H      9   1   2     1.092648178658   113.03657678   227.33467375
 H      9   1   2     1.097132600712   110.79976964   107.31962829
 O     10   6   4     1.427898370200   173.80918870   123.32439140
 H     14  10   6     0.968808080805    95.88204916   359.82086011

---------------------------
INTERNAL COORDINATES (A.U.)
---------------------------
 C      0   0   0     0.000000000000     0.00000000     0.00000000
 C      1   0   0     2.522553914166     0.00000000     0.00000000
 H      1   2   0     2.046362629509   124.96386616     0.00000000
 C      2   1   3     2.850606507154   112.03674947   178.27488343
 H      2   1   3     2.046361578519   124.96391877     0.00000000
 C      4   2   1     2.900900592257   102.66219239    11.66121563
 H      4   2   1     2.064806401899   113.03718559   132.66098886
 H      4   2   1     2.073280969478   110.79936094   252.67601797
 C      1   2   3     2.850610788543   112.03650928   181.72796067
 H      6   4   2     2.198373132042   106.38073739    95.03015058
 H      6   4   2     2.059745151319   115.03868439   212.56968846
 H      9   1   2     2.064805818392   113.03657678   227.33467375
 H      9   1   2     2.073280147942   110.79976964   107.31962829
 O     10   6   4     2.698336866750   173.80918870   123.32439140
 H     14  10   6     1.830781949052    95.88204916   359.82086011

---------------------
BASIS SET INFORMATION
---------------------
There are 3 groups of distinct atoms

 Group   1 Type C   : 19s6p2d contracted to 5s5p2d pattern {88111/21111/11}
 Group   2 Type H   : 5s2p contracted to 3s2p pattern {311/11}
 Group   3 Type O   : 19s6p2d contracted to 5s5p2d pattern {88111/21111/11}

Atom   0C    basis set group =>   1
Atom   1C    basis set group =>   1
Atom   2H    basis set group =>   2
Atom   3C    basis set group =>   1
Atom   4H    basis set group =>   2
Atom   5C    basis set group =>   1
Atom   6H    basis set group =>   2
Atom   7H    basis set group =>   2
Atom   8C    basis set group =>   1
Atom   9H    basis set group =>   2
Atom  10H    basis set group =>   2
Atom  11H    basis set group =>   2
Atom  12H    basis set group =>   2
Atom  13O    basis set group =>   3
Atom  14H    basis set group =>   2
---------------------------------
AUXILIARY/C BASIS SET INFORMATION
---------------------------------
There are 3 groups of distinct atoms

 Group   1 Type C   : 8s6p5d3f1g contracted to 8s6p5d3f1g pattern {11111111/111111/11111/111/1}
 Group   2 Type H   : 4s3p2d1f contracted to 4s3p2d1f pattern {1111/111/11/1}
 Group   3 Type O   : 8s6p5d3f1g contracted to 8s6p5d3f1g pattern {11111111/111111/11111/111/1}

Atom   0C    basis set group =>   1
Atom   1C    basis set group =>   1
Atom   2H    basis set group =>   2
Atom   3C    basis set group =>   1
Atom   4H    basis set group =>   2
Atom   5C    basis set group =>   1
Atom   6H    basis set group =>   2
Atom   7H    basis set group =>   2
Atom   8C    basis set group =>   1
Atom   9H    basis set group =>   2
Atom  10H    basis set group =>   2
Atom  11H    basis set group =>   2
Atom  12H    basis set group =>   2
Atom  13O    basis set group =>   3
Atom  14H    basis set group =>   2
--------------
CABS BASIS SET
--------------
There are 3 groups of distinct atoms

 Group   1 Type C   : 15s10p6d3f1g contracted to 15s10p6d3f1g pattern {111111111111111/1111111111/111111/111/1}
 Group   2 Type H   : 8s5p2d contracted to 8s5p2d pattern {11111111/11111/11}
 Group   3 Type O   : 15s10p6d3f1g contracted to 15s10p6d3f1g pattern {111111111111111/1111111111/111111/111/1}

Atom   0C    basis set group =>   1
Atom   1C    basis set group =>   1
Atom   2H    basis set group =>   2
Atom   3C    basis set group =>   1
Atom   4H    basis set group =>   2
Atom   5C    basis set group =>   1
Atom   6H    basis set group =>   2
Atom   7H    basis set group =>   2
Atom   8C    basis set group =>   1
Atom   9H    basis set group =>   2
Atom  10H    basis set group =>   2
Atom  11H    basis set group =>   2
Atom  12H    basis set group =>   2
Atom  13O    basis set group =>   3
Atom  14H    basis set group =>   2


           ************************************************************
           *        Program running with 8 parallel MPI-processes     *
           *              working on a common directory               *
           ************************************************************
------------------------------------------------------------------------------
                             ORCA STARTUP CALCULATIONS
------------------------------------------------------------------------------
------------------------------------------------------------------------------
                   ___                                                        
                  /   \      - P O W E R E D   B Y -                         
                 /     \                                                     
                 |  |  |   _    _      __       _____    __    __             
                 |  |  |  | |  | |    /  \     |  _  \  |  |  /  |          
                  \  \/   | |  | |   /    \    | | | |  |  | /  /          
                 / \  \   | |__| |  /  /\  \   | |_| |  |  |/  /          
                |  |  |   |  __  | /  /__\  \  |    /   |      \           
                |  |  |   | |  | | |   __   |  |    \   |  |\   \          
                \     /   | |  | | |  |  |  |  | |\  \  |  | \   \       
                 \___/    |_|  |_| |__|  |__|  |_| \__\ |__|  \__/        
                                                                              
                      - O R C A' S   B I G   F R I E N D -                    
                                      &                                       
                       - I N T E G R A L  F E E D E R -                       
                                                                              
 v1 FN, 2020, v2 2021, v3 2022-2024                                           
------------------------------------------------------------------------------


----------------------
SHARK INTEGRAL PACKAGE
----------------------

Number of atoms                             ...     15
Number of basis functions                   ...    297
Number of shells                            ...    153
Maximum angular momentum                    ...      2
Integral batch strategy                     ... SHARK/LIBINT Hybrid
RI-J (if used) integral strategy            ... SPLIT-RIJ (Revised 2003 algorithm where possible)
Printlevel                                  ...      1
Contraction scheme used                     ... PARTIAL GENERAL contraction
Prescreening option                         ... SCHWARTZ
   Thresh                                   ... 1.000e-10
   Tcut                                     ... 1.000e-11
   Tpresel                                  ... 1.000e-11 
Coulomb Range Separation                    ... NOT USED
Exchange Range Separation                   ... NOT USED
Multipole approximations                    ... NOT USED
Finite Nucleus Model                        ... NOT USED
CABS basis                                  ... AVAILABLE
   # of basis functions in CABS             ...    927
   # of shells in CABS                      ...    345
   Maximum angular momentum in CABS         ...      4
F12 Gamma exponent                          ...  0.900000
F12-Geminal                                 ...  6 primitives
l =0 ng=6 ofs=0
   a( 0) =     0.220850853  d( 0)=    -0.314424804 
   a( 1) =     1.004019154  d( 1)=    -0.303695753 
   a( 2) =     3.621217265  d( 2)=    -0.168069685 
   a( 3) =    12.162483048  d( 3)=    -0.098115813 
   a( 4) =    45.855331575  d( 4)=    -0.060246641 
   a( 5) =   254.234600970  d( 5)=    -0.037263542 
Auxiliary Coulomb fitting basis             ... NOT available
Auxiliary J/K fitting basis                 ... NOT available
Auxiliary Correlation fitting basis         ... AVAILABLE
   # of basis functions in Aux-C            ...    756
   # of shells in Aux-C                     ...    228
   Maximum angular momentum in Aux-C        ...      4
Auxiliary 'external' fitting basis          ... NOT available

Checking pre-screening integrals            ... done (  0.0 sec) Dimension = 153
Save PGC pre-screening integrals            ... done (  0.0 sec) Dimension = 153
Calculate PGC overlap integrals             ... done (  0.0 sec) Dimension = 117
Calculating pre-screening integrals (ORCA)  ... done (  0.1 sec) Dimension = 117
Shell pair information
Shell pair cut-off parameter TPreSel        ...   1.0e-11
Total number of shell pairs                 ...     11781
Shell pairs after pre-screening             ...      9965
Total number of primitive shell pairs       ...     15786
Primitive shell pairs kept                  ...     12242
          la=0 lb=0:   3317 shell pairs
          la=1 lb=0:   3877 shell pairs
          la=1 lb=1:   1101 shell pairs
          la=2 lb=0:   1036 shell pairs
          la=2 lb=1:    558 shell pairs
          la=2 lb=2:     76 shell pairs

Checking whether 4 symmetric matrices of dimension 297 fit in memory
:Max Core in MB      =   9000.00
 MB in use           =     64.47
 MB left             =   8935.53
 MB needed           =      1.35
 Data fit in memory  = YES
Calculating RI/C V-Matrix + Cholesky decomp.... done (  0.0 sec)
Calculating Nuclear repulsion               ... done (  0.0 sec) ENN=    229.280819460050 Eh

Diagonalization of the overlap matrix:
Smallest eigenvalue                        ... 6.242e-05
Time for diagonalization                   ...    0.010 sec
Threshold for overlap eigenvalues          ... 1.000e-07
Number of eigenvalues below threshold      ... 0
Time for construction of square roots      ...    0.003 sec
Total time needed                          ...    0.015 sec

-------------------
DFT GRID GENERATION
-------------------

General Integration Accuracy     IntAcc      ... 4.388
Radial Grid Type                 RadialGrid  ... OptM3 with GC (2021)
Angular Grid (max. ang.)         AngularGrid ... 4 (Lebedev-302)
Angular grid pruning method      GridPruning ... 4 (adaptive)
Weight generation scheme         WeightScheme... mBecke (2022)
Basis function cutoff            BFCut       ... 1.0000e-10
Integration weight cutoff        WCut        ... 1.0000e-14
Partially contracted basis set               ... off
Rotationally invariant grid construction     ... off
Angular grids for H and He will be reduced by one unit
Diffuse basis detected: some atoms will have their outermost
                        angular grid increased by 1.

Total number of grid points                  ...    66728
Total number of batches                      ...     1052
Average number of points per batch           ...       63
Average number of grid points per atom       ...     4449

---------------------
SHARK GRID GENERATION
---------------------

General Integration Accuracy     IntAcc      ... 4.388
Radial Grid Type                 RadialGrid  ... OptM3 with GC (2021)
Angular Grid (max. ang.)         AngularGrid ... 4 (Lebedev-302)
Angular grid pruning method      GridPruning ... 4 (adaptive)
Weight generation scheme         WeightScheme... mBecke (2022)
Basis function cutoff            BFCut       ... 1.0000e-10
Integration weight cutoff        WCut        ... 1.0000e-14
Partially contracted basis set               ... off
Rotationally invariant grid construction     ... off
Angular grids for H and He will be reduced by one unit
Diffuse basis detected: some atoms will have their outermost
                        angular grid increased by 1.
Steep s-basis detected: some atoms will have their radial
                        grid points doubled.

Total number of grid points                  ...   104745
Total number of batches                      ...     1646
Average number of points per batch           ...       63
Average number of grid points per atom       ...     6983
Grids setup in   1.1 sec
Initializing property integral containers    ... done (  0.0 sec)

SHARK setup successfully completed in   2.1 seconds

Maximum memory used throughout the entire STARTUP-calculation: 85.5 MB


           ************************************************************
           *        Program running with 8 parallel MPI-processes     *
           *              working on a common directory               *
           ************************************************************
-------------------------------------------------------------------------------
                                 ORCA GUESS
                   Start orbitals & Density for SCF / CASSCF
-------------------------------------------------------------------------------

------------
SCF SETTINGS
------------
Hamiltonian:
 Ab initio Hamiltonian  Method          .... Hartree-Fock(GTOs)


General Settings:
 Integral files         IntName         .... sp
 Hartree-Fock type      HFTyp           .... UHF
 Total Charge           Charge          ....    0
 Multiplicity           Mult            ....    2
 Number of Electrons    NEL             ....   47
 Basis Dimension        Dim             ....  261
 Nuclear Repulsion      ENuc            ....    229.2808194601 Eh

Convergence Acceleration:
 AO-DIIS                CNVDIIS         .... on
   Start iteration      DIISMaxIt       ....    12
   Startup error        DIISStart       ....  0.200000
   # of expansion vecs  DIISMaxEq       ....     5
   Bias factor          DIISBfac        ....   1.050
   Max. coefficient     DIISMaxC        ....  10.000
 MO-DIIS                CNVKDIIS        .... off
 Trust-Rad. Augm. Hess. CNVTRAH         .... auto
   Auto Start mean grad. ratio tolernc. ....  1.125000
   Auto Start start iteration           ....    50
   Auto Start num. interpolation iter.  ....    10
   Max. Number of Micro iterations      ....    24
   Max. Number of Macro iterations      .... Maxiter - #DIIS iter
   Number of Davidson start vectors     ....     2
   Converg. threshold    (grad. norm)   ....   5.000e-05
   Grad. Scal. Fac. for Micro threshold ....   0.100
   Minimum threshold for Micro iter.    ....   1.000e-02
   NR start threshold (gradient norm)   ....   1.000e-04
   Initial trust radius                 ....   0.400
   Minimum AH scaling param. (alpha)    ....   1.000
   Maximum AH scaling param. (alpha)    .... 1000.000
   Quad. conv. algorithm                .... NR
   White noise on init. David. guess    .... on
   Maximum white noise                  ....   0.010
   Pseudo random numbers                .... off
   Inactive MOs                         .... canonical
   Orbital update algorithm             .... Taylor
   Preconditioner                       .... Diag
   Full preconditioner red. dimension   ....   250
 SOSCF                 CNVSOSCF           .... on
   Start iteration     SOSCFMaxIt         ....   150
   Startup grad/error  SOSCFStart         ....  0.003300
   Hessian update      SOSCFHessUp        .... L-BFGS
   Autom. constraints  SOSCFAutoConstrain .... off
 Level Shifting         CNVShift        .... on
   Level shift para.    LevelShift      ....    0.2500
   Turn off err/grad.   ShiftErr        ....    0.0010
 Zerner damping         CNVZerner       .... off
 Static damping         CNVDamp         .... on
   Fraction old density DampFac         ....    0.7000
   Max. Damping (<1)    DampMax         ....    0.9800
   Min. Damping (>=0)   DampMin         ....    0.0000
   Turn off err/grad.   DampErr         ....    0.1000

SCF Procedure:
 Maximum # iterations   MaxIter         ....   125
 SCF integral mode      SCFMode         .... Direct
   Integral package                     .... SHARK and LIBINT hybrid scheme
 Reset frequency        DirectResetFreq ....    20
 Integral Threshold     Thresh          ....  1.000e-10 Eh
 Primitive CutOff       TCut            ....  1.000e-11 Eh

Convergence Tolerance:
 Convergence Check Mode ConvCheckMode   .... Total+1el-Energy
 Convergence forced     ConvForced      .... 1
 Energy Change          TolE            ....  1.000e-06 Eh
 1-El. energy change                    ....  1.000e-03 Eh
 Orbital Gradient       TolG            ....  5.000e-05
 Orbital Rotation angle TolX            ....  5.000e-05
 DIIS Error             TolErr          ....  1.000e-06

------------------------------
INITIAL GUESS: MODEL POTENTIAL
------------------------------
Loading Hartree-Fock densities                     ... done
Calculating cut-offs                               ... done
Initializing the effective Hamiltonian             ... done
Setting up the integral package (SHARK)            ... done
Starting the Coulomb interaction                   ... done (   0.1 sec)
Making the grid                                    ... done (   0.1 sec)
Mapping shells                                     ... done
Starting the XC term evaluation                    ... done (   0.0 sec)
Transforming the Hamiltonian                       ... done (   0.0 sec)
Diagonalizing the Hamiltonian                      ... done (   0.0 sec)
Back transforming the eigenvectors                 ... done (   0.0 sec)
Now organizing SCF variables                       ... done
                      ------------------
                      INITIAL GUESS DONE (   0.2 sec)
                      ------------------
             **** ENERGY FILE WAS UPDATED (sp.en.tmp) ****
Finished Guess after   1.8 sec
Maximum memory used throughout the entire GUESS-calculation: 17.9 MB


           ************************************************************
           *        Program running with 8 parallel MPI-processes     *
           *              working on a common directory               *
           ************************************************************

-------------------------------------------------------------------------------------------
                                      ORCA LEAN-SCF
                              memory conserving SCF solver
-------------------------------------------------------------------------------------------

----------------------------------------D-I-I-S--------------------------------------------
Iteration    Energy (Eh)           Delta-E    RMSDP     MaxDP     DIISErr   Damp  Time(sec)
-------------------------------------------------------------------------------------------
               ***  Starting incremental Fock matrix formation  ***
    1    -269.0167338536630268     0.00e+00  1.74e-03  1.51e-02  1.82e-01  0.700   3.3
    2    -269.1419673190375761    -1.25e-01  1.38e-03  1.31e-02  1.06e-01  0.700   3.1
                               ***Turning on AO-DIIS***
    3    -269.2173333639033217    -7.54e-02  8.68e-04  8.64e-03  6.06e-02  0.700   3.0
    4    -269.2678418007543542    -5.05e-02  2.32e-03  2.57e-02  4.57e-02  0.000   3.0
    5    -269.4024634494317070    -1.35e-01  8.09e-04  1.12e-02  2.37e-02  0.000   3.1
    6    -269.4139540870655765    -1.15e-02  8.52e-04  1.32e-02  1.67e-02  0.000   3.0
    7    -269.4224245788068401    -8.47e-03  5.14e-04  7.19e-03  1.26e-02  0.000   3.0
    8    -269.4257170780651904    -3.29e-03  3.14e-04  3.63e-03  6.66e-03  0.000   2.9
    9    -269.4270181203804668    -1.30e-03  2.42e-04  2.73e-03  4.69e-03  0.000   2.9
                              *** Initializing SOSCF ***
---------------------------------------S-O-S-C-F--------------------------------------
Iteration    Energy (Eh)           Delta-E    RMSDP     MaxDP     MaxGrad    Time(sec)
--------------------------------------------------------------------------------------
   10    -269.4276427071531543    -6.25e-04  1.63e-04  1.83e-03  2.50e-03     2.8
               *** Restarting incremental Fock matrix formation ***
   11    -269.4278644841140249    -2.22e-04  6.51e-05  8.43e-04  1.91e-03     3.2
   12    -269.4279082552362752    -4.38e-05  1.30e-04  1.45e-03  1.01e-03     2.6
   13    -269.4279499552509378    -4.17e-05  2.82e-05  3.65e-04  4.84e-04     2.7
   14    -269.4279557687910938    -5.81e-06  2.07e-05  2.75e-04  2.99e-04     2.5
   15    -269.4279576905948943    -1.92e-06  5.60e-06  6.97e-05  1.00e-04     2.5
   16    -269.4279578934847450    -2.03e-07  4.27e-06  6.01e-05  6.29e-05     2.2
                 **** Energy Check signals convergence ****

               *****************************************************
               *                     SUCCESS                       *
               *           SCF CONVERGED AFTER  16 CYCLES          *
               *****************************************************

             **** ENERGY FILE WAS UPDATED (sp.en.tmp) ****

----------------
TOTAL SCF ENERGY
----------------

Total Energy       :       -269.42795797172130 Eh           -7331.50746 eV

Components:
Nuclear Repulsion  :        229.28081946005008 Eh            6239.04828 eV
Electronic Energy  :       -498.70877743177141 Eh          -13570.55575 eV
One Electron Energy:       -819.93027644053927 Eh          -22311.43711 eV
Two Electron Energy:        321.22149900876786 Eh            8740.88137 eV

Virial components:
Potential Energy   :       -538.60618954284053 Eh          -14656.21953 eV
Kinetic Energy     :        269.17823157111923 Eh            7324.71206 eV
Virial Ratio       :          2.00092773624057

---------------
SCF CONVERGENCE
---------------

  Last Energy change         ...    2.0289e-07  Tolerance :   1.0000e-06
  Last MAX-Density change    ...    6.0111e-05  Tolerance :   1.0000e-05
  Last RMS-Density change    ...    4.2700e-06  Tolerance :   1.0000e-06
  Last DIIS Error            ...    2.5026e-03  Tolerance :   1.0000e-06
  Last Orbital Gradient      ...    6.2871e-05  Tolerance :   5.0000e-05
  Last Orbital Rotation      ...    1.9966e-04  Tolerance :   5.0000e-05


----------------------
UHF SPIN CONTAMINATION
----------------------

Expectation value of <S**2>     :     0.774529
Ideal value S*(S+1) for S=0.5   :     0.750000
Deviation                       :     0.024529

----------------
ORBITAL ENERGIES
----------------
                 SPIN UP ORBITALS
  NO   OCC          E(Eh)            E(eV) 
   0   1.0000     -20.626881      -561.2860 
   1   1.0000     -11.226976      -305.5016 
   2   1.0000     -11.221089      -305.3414 
   3   1.0000     -11.220895      -305.3361 
   4   1.0000     -11.220438      -305.3236 
   5   1.0000     -11.218958      -305.2834 
   6   1.0000      -1.388201       -37.7749 
   7   1.0000      -1.131938       -30.8016 
   8   1.0000      -0.967605       -26.3299 
   9   1.0000      -0.956072       -26.0160 
  10   1.0000      -0.794525       -21.6201 
  11   1.0000      -0.723536       -19.6884 
  12   1.0000      -0.705247       -19.1908 
  13   1.0000      -0.675497       -18.3812 
  14   1.0000      -0.663697       -18.0601 
  15   1.0000      -0.610398       -16.6098 
  16   1.0000      -0.559055       -15.2127 
  17   1.0000      -0.545533       -14.8447 
  18   1.0000      -0.533597       -14.5199 
  19   1.0000      -0.492731       -13.4079 
  20   1.0000      -0.490602       -13.3500 
  21   1.0000      -0.478596       -13.0232 
  22   1.0000      -0.437631       -11.9085 
  23   1.0000      -0.337344        -9.1796 
  24   0.0000       0.057652         1.5688 
  25   0.0000       0.061015         1.6603 
  26   0.0000       0.063084         1.7166 
  27   0.0000       0.072143         1.9631 
  28   0.0000       0.079670         2.1679 
  29   0.0000       0.088472         2.4074 
  30   0.0000       0.109125         2.9694 
  31   0.0000       0.111559         3.0357 
  32   0.0000       0.127855         3.4791 
  33   0.0000       0.129398         3.5211 
  34   0.0000       0.136397         3.7115 

                 SPIN DOWN ORBITALS
  NO   OCC          E(Eh)            E(eV) 
   0   1.0000     -20.589161      -560.2596 
   1   1.0000     -11.221572      -305.3545 
   2   1.0000     -11.221457      -305.3514 
   3   1.0000     -11.220590      -305.3278 
   4   1.0000     -11.218942      -305.2829 
   5   1.0000     -11.218438      -305.2692 
   6   1.0000      -1.247944       -33.9583 
   7   1.0000      -1.126648       -30.6577 
   8   1.0000      -0.956082       -26.0163 
   9   1.0000      -0.955215       -25.9927 
  10   1.0000      -0.774566       -21.0770 
  11   1.0000      -0.723206       -19.6794 
  12   1.0000      -0.671906       -18.2835 
  13   1.0000      -0.651298       -17.7227 
  14   1.0000      -0.614146       -16.7117 
  15   1.0000      -0.550160       -14.9706 
  16   1.0000      -0.532362       -14.4863 
  17   1.0000      -0.506344       -13.7783 
  18   1.0000      -0.490605       -13.3500 
  19   1.0000      -0.490096       -13.3362 
  20   1.0000      -0.474973       -12.9247 
  21   1.0000      -0.466300       -12.6887 
  22   1.0000      -0.338225        -9.2036 
  23   0.0000       0.057143         1.5550 
  24   0.0000       0.061117         1.6631 
  25   0.0000       0.063128         1.7178 
  26   0.0000       0.063248         1.7211 
  27   0.0000       0.074468         2.0264 
  28   0.0000       0.079683         2.1683 
  29   0.0000       0.093288         2.5385 
  30   0.0000       0.109245         2.9727 
  31   0.0000       0.119196         3.2435 
  32   0.0000       0.127981         3.4825 
  33   0.0000       0.135383         3.6839 
*Only the first 10 virtual orbitals were printed.

                    ********************************
                    * MULLIKEN POPULATION ANALYSIS *
                    ********************************

--------------------------------------------
MULLIKEN ATOMIC CHARGES AND SPIN POPULATIONS
--------------------------------------------
   0 C :   -0.214954    0.003271
   1 C :   -0.214997    0.003250
   2 H :    0.136223    0.000033
   3 C :   -0.087680   -0.032062
   4 H :    0.136222    0.000035
   5 C :   -0.294537    0.304213
   6 H :    0.108414    0.008402
   7 H :    0.101059    0.009773
   8 C :   -0.087656   -0.032068
   9 H :    0.141160   -0.131290
  10 H :    0.096516   -0.016085
  11 H :    0.108415    0.008401
  12 H :    0.101053    0.009771
  13 O :   -0.282112    0.914853
  14 H :    0.252872   -0.050496
Sum of atomic charges         :   -0.0000000
Sum of atomic spin populations:    1.0000000

-----------------------------------------------------
MULLIKEN REDUCED ORBITAL CHARGES AND SPIN POPULATIONS
-----------------------------------------------------
CHARGE
  0 C s       :     3.167153  s :     3.167153
      pz      :     0.974980  p :     2.967037
      px      :     1.001585
      py      :     0.990472
      dz2     :     0.007481  d :     0.080764
      dxz     :     0.009284
      dyz     :     0.027001
      dx2y2   :     0.010838
      dxy     :     0.026160

  1 C s       :     3.167194  s :     3.167194
      pz      :     0.975006  p :     2.967040
      px      :     1.001589
      py      :     0.990444
      dz2     :     0.007476  d :     0.080763
      dxz     :     0.009287
      dyz     :     0.027013
      dx2y2   :     0.010839
      dxy     :     0.026148

  2 H s       :     0.834006  s :     0.834006
      pz      :     0.012555  p :     0.029771
      px      :     0.013351
      py      :     0.003865

  3 C s       :     2.954688  s :     2.954688
      pz      :     1.013432  p :     3.026283
      px      :     0.967904
      py      :     1.044946
      dz2     :     0.019986  d :     0.106709
      dxz     :     0.024815
      dyz     :     0.018962
      dx2y2   :     0.014254
      dxy     :     0.028691

  4 H s       :     0.834007  s :     0.834007
      pz      :     0.012555  p :     0.029770
      px      :     0.013356
      py      :     0.003859

  5 C s       :     3.086314  s :     3.086314
      pz      :     1.099255  p :     3.099950
      px      :     1.044779
      py      :     0.955916
      dz2     :     0.021443  d :     0.108273
      dxz     :     0.027079
      dyz     :     0.013867
      dx2y2   :     0.022517
      dxy     :     0.023367

  6 H s       :     0.857568  s :     0.857568
      pz      :     0.006680  p :     0.034017
      px      :     0.010345
      py      :     0.016993

  7 H s       :     0.866211  s :     0.866211
      pz      :     0.014593  p :     0.032730
      px      :     0.007274
      py      :     0.010863

  8 C s       :     2.954676  s :     2.954676
      pz      :     1.013427  p :     3.026269
      px      :     0.967922
      py      :     1.044920
      dz2     :     0.019999  d :     0.106711
      dxz     :     0.024813
      dyz     :     0.018952
      dx2y2   :     0.014254
      dxy     :     0.028692

  9 H s       :     0.788184  s :     0.788184
      pz      :     0.021433  p :     0.070656
      px      :     0.032054
      py      :     0.017169

 10 H s       :     0.865794  s :     0.865794
      pz      :     0.019256  p :     0.037690
      px      :     0.011626
      py      :     0.006808

 11 H s       :     0.857569  s :     0.857569
      pz      :     0.006678  p :     0.034017
      px      :     0.010349
      py      :     0.016989

 12 H s       :     0.866216  s :     0.866216
      pz      :     0.014597  p :     0.032731
      px      :     0.007272
      py      :     0.010862

 13 O s       :     3.901983  s :     3.901983
      pz      :     1.269246  p :     4.364073
      px      :     1.140009
      py      :     1.954818
      dz2     :     0.003072  d :     0.016056
      dxz     :     0.009387
      dyz     :     0.001523
      dx2y2   :     0.001832
      dxy     :     0.000241

 14 H s       :     0.682758  s :     0.682758
      pz      :     0.013697  p :     0.064370
      px      :     0.016317
      py      :     0.034356


SPIN
  0 C s       :     0.001190  s :     0.001190
      pz      :     0.000467  p :     0.002383
      px      :     0.001114
      py      :     0.000803
      dz2     :    -0.000062  d :    -0.000302
      dxz     :    -0.000081
      dyz     :     0.000024
      dx2y2   :    -0.000097
      dxy     :    -0.000085

  1 C s       :     0.001186  s :     0.001186
      pz      :     0.000459  p :     0.002366
      px      :     0.001105
      py      :     0.000802
      dz2     :    -0.000062  d :    -0.000302
      dxz     :    -0.000081
      dyz     :     0.000024
      dx2y2   :    -0.000097
      dxy     :    -0.000085

  2 H s       :     0.000051  s :     0.000051
      pz      :    -0.000013  p :    -0.000018
      px      :    -0.000015
      py      :     0.000011

  3 C s       :    -0.012011  s :    -0.012011
      pz      :    -0.006412  p :    -0.022442
      px      :    -0.005938
      py      :    -0.010093
      dz2     :    -0.000119  d :     0.002391
      dxz     :     0.000129
      dyz     :     0.001197
      dx2y2   :     0.000544
      dxy     :     0.000640

  4 H s       :     0.000054  s :     0.000054
      pz      :    -0.000013  p :    -0.000018
      px      :    -0.000016
      py      :     0.000011

  5 C s       :     0.054416  s :     0.054416
      pz      :     0.095290  p :     0.251528
      px      :     0.139878
      py      :     0.016360
      dz2     :    -0.000303  d :    -0.001732
      dxz     :    -0.000856
      dyz     :     0.000244
      dx2y2   :    -0.000471
      dxy     :    -0.000345

  6 H s       :     0.008475  s :     0.008475
      pz      :    -0.000020  p :    -0.000073
      px      :     0.000078
      py      :    -0.000130

  7 H s       :     0.010054  s :     0.010054
      pz      :     0.000161  p :    -0.000281
      px      :    -0.000050
      py      :    -0.000392

  8 C s       :    -0.012011  s :    -0.012011
      pz      :    -0.006412  p :    -0.022448
      px      :    -0.005937
      py      :    -0.010099
      dz2     :    -0.000119  d :     0.002391
      dxz     :     0.000129
      dyz     :     0.001197
      dx2y2   :     0.000543
      dxy     :     0.000641

  9 H s       :    -0.167235  s :    -0.167235
      pz      :     0.011479  p :     0.035945
      px      :     0.023184
      py      :     0.001282

 10 H s       :    -0.018548  s :    -0.018548
      pz      :     0.001130  p :     0.002463
      px      :     0.001235
      py      :     0.000097

 11 H s       :     0.008474  s :     0.008474
      pz      :    -0.000020  p :    -0.000073
      px      :     0.000078
      py      :    -0.000131

 12 H s       :     0.010052  s :     0.010052
      pz      :     0.000160  p :    -0.000281
      px      :    -0.000049
      py      :    -0.000392

 13 O s       :     0.007934  s :     0.007934
      pz      :     0.329879  p :     0.906310
      px      :     0.573944
      py      :     0.002487
      dz2     :     0.000811  d :     0.000608
      dxz     :    -0.000834
      dyz     :     0.000083
      dx2y2   :     0.000534
      dxy     :     0.000015

 14 H s       :    -0.052663  s :    -0.052663
      pz      :     0.001140  p :     0.002166
      px      :     0.004151
      py      :    -0.003125



                     *******************************
                     * LOEWDIN POPULATION ANALYSIS *
                     *******************************

-------------------------------------------
LOEWDIN ATOMIC CHARGES AND SPIN POPULATIONS
-------------------------------------------
   0 C :   -0.023527   -0.000677
   1 C :   -0.023529   -0.000687
   2 H :    0.010898   -0.000098
   3 C :   -0.020613    0.001125
   4 H :    0.010898   -0.000098
   5 C :    0.039102    0.149493
   6 H :    0.019678    0.002573
   7 H :    0.016591    0.005324
   8 C :   -0.020614    0.001120
   9 H :   -0.092406    0.036835
  10 H :    0.007548    0.004198
  11 H :    0.019680    0.002574
  12 H :    0.016590    0.005322
  13 O :    0.100110    0.788974
  14 H :   -0.060408    0.004021

----------------------------------------------------
LOEWDIN REDUCED ORBITAL CHARGES AND SPIN POPULATIONS
----------------------------------------------------
CHARGE
  0 C s       :     2.730797  s :     2.730797
      pz      :     0.903911  p :     2.878771
      px      :     0.919488
      py      :     1.055373
      dz2     :     0.048436  d :     0.413958
      dxz     :     0.051092
      dyz     :     0.110915
      dx2y2   :     0.083009
      dxy     :     0.120506

  1 C s       :     2.730797  s :     2.730797
      pz      :     0.903932  p :     2.878773
      px      :     0.919482
      py      :     1.055359
      dz2     :     0.048421  d :     0.413959
      dxz     :     0.051100
      dyz     :     0.110936
      dx2y2   :     0.083006
      dxy     :     0.120497

  2 H s       :     0.800354  s :     0.800354
      pz      :     0.064203  p :     0.188747
      px      :     0.067514
      py      :     0.057030

  3 C s       :     2.679758  s :     2.679758
      pz      :     0.984758  p :     2.925919
      px      :     0.967554
      py      :     0.973607
      dz2     :     0.066816  d :     0.414937
      dxz     :     0.087209
      dyz     :     0.088874
      dx2y2   :     0.063431
      dxy     :     0.108606

  4 H s       :     0.800354  s :     0.800354
      pz      :     0.064220  p :     0.188747
      px      :     0.067518
      py      :     0.057009

  5 C s       :     2.685296  s :     2.685296
      pz      :     0.987236  p :     2.874113
      px      :     0.941076
      py      :     0.945800
      dz2     :     0.069284  d :     0.401489
      dxz     :     0.090872
      dyz     :     0.061130
      dx2y2   :     0.092374
      dxy     :     0.087830

  6 H s       :     0.793465  s :     0.793465
      pz      :     0.056182  p :     0.186857
      px      :     0.061194
      py      :     0.069481

  7 H s       :     0.793656  s :     0.793656
      pz      :     0.077363  p :     0.189753
      px      :     0.057951
      py      :     0.054439

  8 C s       :     2.679757  s :     2.679757
      pz      :     0.984758  p :     2.925922
      px      :     0.967569
      py      :     0.973595
      dz2     :     0.066846  d :     0.414935
      dxz     :     0.087199
      dyz     :     0.088851
      dx2y2   :     0.063430
      dxy     :     0.108609

  9 H s       :     0.705801  s :     0.705801
      pz      :     0.134938  p :     0.386605
      px      :     0.185820
      py      :     0.065847

 10 H s       :     0.801719  s :     0.801719
      pz      :     0.087369  p :     0.190733
      px      :     0.055567
      py      :     0.047797

 11 H s       :     0.793462  s :     0.793462
      pz      :     0.056175  p :     0.186858
      px      :     0.061209
      py      :     0.069474

 12 H s       :     0.793657  s :     0.793657
      pz      :     0.077370  p :     0.189753
      px      :     0.057945
      py      :     0.054438

 13 O s       :     3.484748  s :     3.484748
      pz      :     1.367293  p :     4.371215
      px      :     1.153766
      py      :     1.850157
      dz2     :     0.004453  d :     0.043927
      dxz     :     0.027758
      dyz     :     0.000333
      dx2y2   :     0.011307
      dxy     :     0.000076

 14 H s       :     0.677559  s :     0.677559
      pz      :     0.160513  p :     0.382849
      px      :     0.100955
      py      :     0.121381


SPIN
  0 C s       :     0.000050  s :     0.000050
      pz      :     0.000094  p :    -0.000083
      px      :    -0.000223
      py      :     0.000047
      dz2     :    -0.000234  d :    -0.000645
      dxz     :    -0.000039
      dyz     :     0.000051
      dx2y2   :    -0.000319
      dxy     :    -0.000105

  1 C s       :     0.000050  s :     0.000050
      pz      :     0.000088  p :    -0.000093
      px      :    -0.000228
      py      :     0.000046
      dz2     :    -0.000233  d :    -0.000643
      dxz     :    -0.000039
      dyz     :     0.000052
      dx2y2   :    -0.000319
      dxy     :    -0.000104

  2 H s       :    -0.000054  s :    -0.000054
      pz      :    -0.000027  p :    -0.000044
      px      :    -0.000022
      py      :     0.000005

  3 C s       :    -0.001661  s :    -0.001661
      pz      :    -0.002781  p :    -0.010195
      px      :    -0.003468
      py      :    -0.003946
      dz2     :     0.000516  d :     0.012982
      dxz     :     0.000657
      dyz     :     0.005509
      dx2y2   :     0.002371
      dxy     :     0.003928

  4 H s       :    -0.000054  s :    -0.000054
      pz      :    -0.000027  p :    -0.000045
      px      :    -0.000023
      py      :     0.000005

  5 C s       :     0.013072  s :     0.013072
      pz      :     0.053617  p :     0.152795
      px      :     0.090287
      py      :     0.008891
      dz2     :    -0.001495  d :    -0.016375
      dxz     :    -0.008743
      dyz     :    -0.000189
      dx2y2   :    -0.004746
      dxy     :    -0.001202

  6 H s       :     0.003273  s :     0.003273
      pz      :    -0.000047  p :    -0.000699
      px      :    -0.000104
      py      :    -0.000548

  7 H s       :     0.004943  s :     0.004943
      pz      :    -0.000110  p :     0.000381
      px      :     0.000295
      py      :     0.000196

  8 C s       :    -0.001661  s :    -0.001661
      pz      :    -0.002781  p :    -0.010200
      px      :    -0.003470
      py      :    -0.003950
      dz2     :     0.000516  d :     0.012981
      dxz     :     0.000656
      dyz     :     0.005509
      dx2y2   :     0.002369
      dxy     :     0.003931

  9 H s       :    -0.049186  s :    -0.049186
      pz      :     0.025026  p :     0.086021
      px      :     0.061580
      py      :    -0.000585

 10 H s       :    -0.006886  s :    -0.006886
      pz      :     0.004460  p :     0.011084
      px      :     0.006278
      py      :     0.000346

 11 H s       :     0.003273  s :     0.003273
      pz      :    -0.000047  p :    -0.000699
      px      :    -0.000104
      py      :    -0.000548

 12 H s       :     0.004942  s :     0.004942
      pz      :    -0.000110  p :     0.000380
      px      :     0.000294
      py      :     0.000196

 13 O s       :     0.017174  s :     0.017174
      pz      :     0.276912  p :     0.774740
      px      :     0.490659
      py      :     0.007170
      dz2     :    -0.000099  d :    -0.002940
      dxz     :    -0.002201
      dyz     :     0.000048
      dx2y2   :    -0.000681
      dxy     :    -0.000007

 14 H s       :    -0.027076  s :    -0.027076
      pz      :     0.014977  p :     0.031097
      px      :     0.021364
      py      :    -0.005243



                      *****************************
                      * MAYER POPULATION ANALYSIS *
                      *****************************

  NA   - Mulliken gross atomic population
  ZA   - Total nuclear charge
  QA   - Mulliken gross atomic charge
  VA   - Mayer's total valence
  BVA  - Mayer's bonded valence
  FA   - Mayer's free valence

  ATOM       NA         ZA         QA         VA         BVA        FA
  0 C      6.2150     6.0000    -0.2150     4.0461     4.0461     0.0000
  1 C      6.2150     6.0000    -0.2150     4.0462     4.0462     0.0000
  2 H      0.8638     1.0000     0.1362     0.9778     0.9778     0.0000
  3 C      6.0877     6.0000    -0.0877     4.0620     4.0616     0.0004
  4 H      0.8638     1.0000     0.1362     0.9778     0.9778     0.0000
  5 C      6.2945     6.0000    -0.2945     4.3286     4.2706     0.0580
  6 H      0.8916     1.0000     0.1084     1.0001     1.0001     0.0001
  7 H      0.8989     1.0000     0.1011     0.9993     0.9992     0.0001
  8 C      6.0877     6.0000    -0.0877     4.0620     4.0615     0.0004
  9 H      0.8588     1.0000     0.1412     1.0981     1.0629     0.0352
 10 H      0.9035     1.0000     0.0965     1.0011     1.0007     0.0004
 11 H      0.8916     1.0000     0.1084     1.0001     1.0001     0.0001
 12 H      0.8989     1.0000     0.1011     0.9993     0.9992     0.0001
 13 O      8.2821     8.0000    -0.2821     1.8134     1.0575     0.7559
 14 H      0.7471     1.0000     0.2529     0.9635     0.9602     0.0033

  Mayer bond orders larger than 0.100000
B(  0-C ,  1-C ) :   1.9716 B(  0-C ,  2-H ) :   0.9553 B(  0-C ,  8-C ) :   1.0574 
B(  1-C ,  3-C ) :   1.0575 B(  1-C ,  4-H ) :   0.9553 B(  3-C ,  5-C ) :   1.0664 
B(  3-C ,  6-H ) :   0.9660 B(  3-C ,  7-H ) :   0.9490 B(  5-C ,  8-C ) :   1.0665 
B(  5-C ,  9-H ) :   0.9590 B(  5-C , 10-H ) :   0.9545 B(  8-C , 11-H ) :   0.9660 
B(  8-C , 12-H ) :   0.9490 B( 13-O , 14-H ) :   0.9367 

-------
TIMINGS
-------

Total SCF time: 0 days 0 hours 0 min 49 sec 

Total time                  ....      49.628 sec
Sum of individual times     ....      47.391 sec  ( 95.5%)

SCF preparation             ....       1.637 sec  (  3.3%)
Fock matrix formation       ....      44.666 sec  ( 90.0%)
  Startup                   ....       0.012 sec  (  0.0% of F)
  Coulomb+Exchange Fock     ....      46.747 sec  (104.7% of F)
Diagonalization             ....       0.000 sec  (  0.0%)
Density matrix formation    ....       0.116 sec  (  0.2%)
Total Energy calculation    ....       0.054 sec  (  0.1%)
Population analysis         ....       0.034 sec  (  0.1%)
Orbital Transformation      ....       0.083 sec  (  0.2%)
Orbital Orthonormalization  ....       0.000 sec  (  0.0%)
DIIS solution               ....       0.550 sec  (  1.1%)
SOSCF solution              ....       0.247 sec  (  0.5%)
Finished LeanSCF after  49.7 sec

Maximum memory used throughout the entire LEANSCF-calculation: 21.0 MB


           ************************************************************
           *        Program running with 8 parallel MPI-processes     *
           *              working on a common directory               *
           ************************************************************

------------------------------------------------------------------------------
                         ORCA PROPERTY INTEGRAL CALCULATIONS
------------------------------------------------------------------------------

GBWName                                   ... sp.gbw
Number of atoms                           ...     15
Number of basis functions                 ...    297
Max core memory                           ...   9000 MB

Dipole integrals                          ... YES
Quadrupole integrals                      ...  NO
Linear momentum integrals                 ... YES
Angular momentum integrals                ... YES
Higher moments length integrals           ...  NO
Higher moments velocity integrals         ...  NO
Kinetic energy integrals                  ...  NO
GIAO right hand sides                     ...  NO
GIAO dipole derivative integrals          ...  NO
SOC integrals                             ...  NO
EPR diamagnetic integrals (GIAO)          ...  NO
EPR gauge integrals                       ...  NO
Field gradient integrals                  ...  NO (   0 nuclei)
Spin-dipole/Fermi contact integrals       ...  NO (   0 nuclei)
Contact density integrals                 ...  NO (   0 nuclei)
Nucleus-orbit integrals                   ...  NO (   0 nuclei)
Geometric perturbations                   ...  NO (  15 nuclei)

Choice of electric origin   ... Center of mass
Position of electric origin ... (  0.0083, -0.0000, -0.0492) 
Choice of magnetic origin   ... GIAO
Position of magnetic origin ... (  0.0000,  0.0000,  0.0000) 

Calculating integrals                     ... Electric Dipole (Length)     done (  0.0 sec)
Calculating integrals                     ... Linear Momentum              done (  0.0 sec)
Calculating integrals                     ... Angular Momentum  (ElOri)    done (  0.0 sec)

Property integrals calculated in   0.0 sec

Maximum memory used throughout the entire PROPINT-calculation: 18.8 MB


           ************************************************************
           *        Program running with 8 parallel MPI-processes     *
           *              working on a common directory               *
           ************************************************************


--------------------------------------------------------------------------------
                             ORCA-MATRIX DRIVEN CI
--------------------------------------------------------------------------------

--------------------------------
AUTOMATIC CHOICE OF INCORE LEVEL
--------------------------------

Memory available                           ...   4500.00 MB
Memory needed for S+T                      ...    219.84 MB
Memory needed for J+K                      ...    440.30 MB
Memory needed for DIIS                     ...   3077.74 MB
Memory needed for 3-ext                    ...   1828.13 MB
Memory needed for 4-ext                    ...  12085.99 MB
Memory needed for triples                  ...    507.81 MB
 -> Final InCoreLevel    ... 3
 -> check shows that triples correction can be computed


Wavefunction type
-----------------
Correlation treatment                      ...      CCSD     
Single excitations                         ... ON
Orbital optimization                       ... OFF
Calculation of Z vector                    ... OFF
Calculation of Brueckner orbitals          ... OFF
Perturbative triple excitations            ... ON
Calculation of F12 correction              ... ON
   Using RI for F12 correction             ... ON
Frozen core treatment                      ... chemical core (12 el)
Reference Wavefunction                     ... UHF
  Alpha-MOs occ    :     6 ...   23 ( 18 MO's/ 18 electrons)
  Beta-MOs occ     :     6 ...   22 ( 17 MO's/ 17 electrons)
  Alpha-MOs virt   :    24 ...  260 (237 MO's              )
  Beta-MOs virt    :    23 ...  260 (238 MO's              )
Number of AO's                             ...    261
Number of electrons                        ...     47
Number of correlated electrons             ...     35

Algorithmic settings
--------------------
Integral transformation                    ... Separate K and J transformations
K(C) Formation                             ... AO-EXCHANGE STORED
Maximum number of iterations               ...        50
Convergence tolerance (max. residuum)      ... 2.500e-05
Level shift for amplitude update           ... 2.000e-01
Maximum number of DIIS vectors             ...         7
DIIS turned on at iteration                ...         0
Damping before turning on DIIS             ...     0.500
Damping after turning on DIIS              ...     0.000
Pair specific amplitude update             ... OFF
Natural orbital iterations                 ... OFF
Perturbative natural orbital generation    ... OFF
Printlevel                                 ... 2

Memory handling:
----------------
Maximum memory for working arrays          ...   4500 MB
Data storage in matrix containers          ... UNCOMPRESSED
Data type for integral storage             ... DOUBLE
In-Core Storage of quantities:
   Amplitudes+Sigma Vector      ... YES
   J+K operators                ... YES
   DIIS vectors                 ... YES
   3-external integrals         ... NO
   4-external integrals         ... NO


Initializing the integral package          ... done
Warning: reference  - re-canonicalizations have been set to INT 1 VIRT 1
Fock densities were made 
Making Fock matrix and reference energy:

--------------------------
UNRESTRICTED FOCK OPERATOR
--------------------------

Recanonicalizing the internal orbitals
Recanonicalizing the virtual orbitals
Storing new orbitals
Time needed for Fock operator              ...            5.955 sec
Reference energy                           ...   -269.427957981

-------------------------
SHARK HALF TRANSFORMATION
-------------------------

Number of basis functions                ...    261
Number of operators                      ...      2
   Operator  0:    6-  23

   Operator  1:    6-  22

Integral generator used                  ... SHARK
Contraction scheme used                  ... SEGMENTED CONTRACTION
MaxCore in resort                        ...   9000 MB

Half transformed integrals for op=   0   ... sp.SHARK_MNPQ0.tmp
Resorted half transformed integrals      ... sp._PQMN_0.tmp
Half transformed integrals for op=   1   ... sp.SHARK_MNPQ1.tmp
Resorted half transformed integrals      ... sp._PQMN_1.tmp
Starting integral generation + half trafo... 
Half trafo (segmented) done. Total time =  8.1 sec. integrals=  6.1 sec trafo=  2.0 sec
Starting integral resorting              ... done (  0.4 sec)

SHARK half integral transformation done. Total time =  8.5 sec.

----------------------------------
J-TRAFO SECOND HALF TRANSFORMATION
----------------------------------

Generate (ij|kl)                        ... NO
Generate (ij|ka)                        ... YES
Generate (ij|ab)                        ... YES
Generate (ia|bc)                        ... NO
Generate (ab|cd)                        ... NO
Generate (pq|rs)                        ... NO

Number of operators                     ... 2
   Operator 0                           ...    6-  23 to   24- 260
   PQMN-Container name                  ... sp._PQMN_0.tmp
   IJKA-Container name    op=0,0        ... sp._IJKA_0.tmp
   IJAB-Container name    op=0,0        ... sp._IJAB_0.tmp
   IJKA-Container name    op=0,1        ... sp._IJKA_2.tmp
   IJAB-Container name    op=0,1        ... sp._IJAB_2.tmp
   Operator 1                           ...    6-  22 to   23- 260
   PQMN-Container name                  ... sp._PQMN_1.tmp
   IJKA-Container name    op=1,0        ... sp._IJKA_3.tmp
   IJAB-Container name    op=1,0        ... sp._IJAB_3.tmp
   IJKA-Container name    op=1,1        ... sp._IJKA_1.tmp
   IJAB-Container name    op=1,1        ... sp._IJAB_1.tmp

Starting integral transformations       ... done
Completed Coulomb integral formation in   0.2 sec


-------------------------
SHARK HALF TRANSFORMATION (Exchange order)
-------------------------

Number of basis functions                   ...    261
Number of operators                         ...      2
   Operator  0:    6-  23 (p-index in (p*|q*))
   Operator  0:    6- 260 (q-index in (p*|q*)
   Operator  1:    6-  22 (p-index in (p*|q*))
   Operator  1:    6- 260 (q-index in (p*|q*)
Integral generator used                     ... SHARK
Contraction scheme used                     ... SEGMENTED CONTRACTION
MaxCore in resort                           ...   9000 MB

Half transformed integrals for op=   0      ... sp.SHARK_MNPQ0.tmp
Resorted half transformed integrals         ... sp._PMQN_0.tmp
Half transformed integrals for op=   1      ... sp.SHARK_MNPQ1.tmp
Resorted half transformed integrals         ... sp._PMQN_1.tmp
Half transformed integrals for op=0/1       ... sp.SHARK_MNPQ01.tmp
Resorted half transformed integrals         ... sp._PMQN_2.tmp
Half transformed integrals for op=1/0       ... sp.SHARK_MNPQ10.tmp
Resorted half transformed integrals         ... sp._PMQN_3.tmp

Half trafo (segmented) done. Total time = 38.1 sec. integrals= 10.2 sec trafo= 16.6 sec

----------------------
SHARK INTEGRAL SORTING (Exchange)
----------------------

Input container                             ... sp.SHARK_MNPQ0.tmp
Output container                            ... sp._PMQN_0.tmp
Range of AO-indices                         ...    0 -  260
Range of bra indices i                      ...    6 -   23
Range of ket indices j                      ...    6 -  260
Symmetric i,j range                         ... NO
Number of (i,j) pairs generated             ... 4590
Max Core memory in MB                       ...   9000

Available core memory in MB                 ...   8901.57
MB needed for one item                      ...      0.52
Fixed MB needed                             ...      0.00
Number of items                             ...       574
Number of batches                           ...         1
Items treated per batch                     ...       574
Batch   0                                   ...      0-   573 (   574)
   => Closing output file and leaving

----------------------
SHARK INTEGRAL SORTING (Exchange)
----------------------

Input container                             ... sp.SHARK_MNPQ1.tmp
Output container                            ... sp._PMQN_1.tmp
Range of AO-indices                         ...    0 -  260
Range of bra indices i                      ...    6 -   22
Range of ket indices j                      ...    6 -  260
Symmetric i,j range                         ... NO
Number of (i,j) pairs generated             ... 4335
Max Core memory in MB                       ...   9000

Available core memory in MB                 ...   8902.36
MB needed for one item                      ...      0.52
Fixed MB needed                             ...      0.00
Number of items                             ...       542
Number of batches                           ...         1
Items treated per batch                     ...       542
Batch   0                                   ...      0-   541 (   542)
   => Closing output file and leaving

----------------------
SHARK INTEGRAL SORTING (Exchange)
----------------------

Input container                             ... sp.SHARK_MNPQ01.tmp
Output container                            ... sp._PMQN_2.tmp
Range of AO-indices                         ...    0 -  260
Range of bra indices i                      ...    6 -   23
Range of ket indices j                      ...    6 -  260
Symmetric i,j range                         ... NO
Number of (i,j) pairs generated             ... 4590
Max Core memory in MB                       ...   9000

Available core memory in MB                 ...   8903.14
MB needed for one item                      ...      0.52
Fixed MB needed                             ...      0.00
Number of items                             ...       574
Number of batches                           ...         1
Items treated per batch                     ...       574
Batch   0                                   ...      0-   573 (   574)
   => Closing output file and leaving

----------------------
SHARK INTEGRAL SORTING (Exchange)
----------------------

Input container                             ... sp.SHARK_MNPQ10.tmp
Output container                            ... sp._PMQN_3.tmp
Range of AO-indices                         ...    0 -  260
Range of bra indices i                      ...    6 -   22
Range of ket indices j                      ...    6 -  260
Symmetric i,j range                         ... NO
Number of (i,j) pairs generated             ... 4335
Max Core memory in MB                       ...   9000

Available core memory in MB                 ...   8903.93
MB needed for one item                      ...      0.52
Fixed MB needed                             ...      0.00
Number of items                             ...       542
Number of batches                           ...         1
Items treated per batch                     ...       542
Batch   0                                   ...      0-   541 (   542)
   => Closing output file and leaving
done (  9.6 sec)

SHARK half integral transformation done. Total time = 47.9 sec.

----------------------------------
K-TRAFO SECOND HALF TRANSFORMATION
----------------------------------

Generate (ik|jl)                        ... YES
Generate (ik|ja)                        ... YES
Generate (ia|jb)                        ... YES
Generate (ib|ac)                        ... YES
Generate (ac|bd)                        ... NO
Generate (pr|qs)                        ... NO

Number of operators                     ... 2
   Operator 0                           ...    6-  23 to   24- 260
   Operator 1                           ...    6-  22 to   23- 260

Starting integral transformations       ... done
Completed Exchange integral formation in  11.4 sec


------------------------------
Initializing F12 data (SHARK)
------------------------------

Mapping basis set                  ... done
Dimension of the orbital basis set  = 261
Dimension of the CABS basis set     = 927
Dimension of the AUX basis set      = 756
Threshold for CABS orthogonalization = 1.000e-08
Test shows that OBS-bases are identical for ORCA and SHARK (good)
Test shows that CABS-bases are identical for ORCA and SHARK (good)
Will use an exponential correlation factor -Exp(-gamma r12)/gamma (gamma= 0.900) fit to 6 Gaussians 
Correlation factor:   
  NGauss  :          6      
  Gaussian expansion: 
    a( 0)=    0.1948458954898069  d( 0)=   -0.3837757042467722 
    a( 1)=    0.9387038354476187  d( 1)=   -0.3334018173527373 
    a( 2)=    3.4610351718196344  d( 2)=   -0.1753946778698117 
    a( 3)=   11.7049811259564009  d( 3)=   -0.1006409547412648 
    a( 4)=   44.2276114110074730  d( 4)=   -0.0614475918190023 
    a( 5)=  245.3721697105246733  d( 5)=   -0.0379425511812079 
Calculating one-electron matrices                       ... (SHARK)done (      0.3 sec)
Calculating pre-screening matrices:                     ... 
     (LIBINT-0)       .... 1/r12 done          (      0.2 sec)
     (LIBINT-1)       .... f12/r12 done        (      0.1 sec)
     (LIBINT-2)       .... f12 done            (      0.1 sec)
     (LIBINT-3)       .... f12^2 done          (      0.2 sec)
     (LIBINT-4)       .... [f12,[T1,f12]] done (      0.2 sec)
                                                        ... done (      0.7 sec)
Making CABS spaces                                      ... done (      0.2 sec)
Calculating 2-index 2-center F12 integrals              ... 
Two index explicit correlation integrals  op=0          ...(SHARK-0) done (      0.0 sec)  Metric   done (      0.0 sec)
Two index explicit correlation integrals  op=1          ...(SHARK-1) done (      0.0 sec)  Metric   done (      0.0 sec)
Two index explicit correlation integrals  op=2          ...(SHARK-2) done (      0.0 sec)  Metric   done (      0.0 sec)
Two index explicit correlation integrals  op=3          ...(SHARK-3) done (      0.0 sec)  Metric   done (      0.0 sec)
Two index explicit correlation integrals  op=4          ...(SHARK-4) done (      0.0 sec)  Metric   done (      0.1 sec)
                                                                     done (      0.3 sec)

-----------------------
SPIN UNRESTRICTED GUESS
-----------------------

Spin-components of the MP2 energy:
EMP2(aa)=     -0.125267917
EMP2(bb)=     -0.112402527
EMP2(ab)=     -0.738486431

Initial guess performed in     0.540 sec
E(0)                                       ...   -269.427957981
E(MP2)                                     ...     -0.976156876
Initial E(tot)                             ...   -270.404114857
<T|T>                                      ...      0.312607334
Number of pairs included                   ... 595

------------------------------------------------
                  UHF COUPLED CLUSTER ITERATIONS
------------------------------------------------

Number of amplitudes to be optimized       ...     25413036

Iter       E(tot)           E(Corr)          Delta-E          Residual     Time      <S|S>**1/2
  0   -270.404114867     -0.976156886     -0.000000010      0.022599025  111.03      0.000077670
                           *** Turning on DIIS ***
  1   -270.427124617     -0.999166636     -0.023009750      0.007149602  113.24      0.051210266
  2   -270.452235811     -1.024277830     -0.025111194      0.005750676  115.10      0.065459855
  3   -270.459529506     -1.031571525     -0.007293695      0.004051288  115.72      0.080677431
  4   -270.461507709     -1.033549728     -0.001978203      0.003050549  115.93      0.090763109
  5   -270.462352091     -1.034394110     -0.000844383      0.001674336  116.96      0.100348375
[...]
      dxz     :     0.055859
      dyz     :     0.110579
      dx2y2   :     0.088357
      dxy     :     0.120691
  2 H s       :     0.786442  s :     0.786442
      pz      :     0.066385  p :     0.197261
      px      :     0.069721
      py      :     0.061155
  3 C s       :     2.684485  s :     2.684485
      pz      :     0.984167  p :     2.914294
      px      :     0.962510
      py      :     0.967617
      dz2     :     0.071240  d :     0.426482
      dxz     :     0.088498
      dyz     :     0.089583
      dx2y2   :     0.067935
      dxy     :     0.109226
  4 H s       :     0.786442  s :     0.786442
      pz      :     0.066402  p :     0.197261
      px      :     0.069725
      py      :     0.061134
  5 C s       :     2.693286  s :     2.693286
      pz      :     0.977767  p :     2.840075
      px      :     0.917537
      py      :     0.944772
      dz2     :     0.071347  d :     0.419087
      dxz     :     0.092651
      dyz     :     0.067479
      dx2y2   :     0.096539
      dxy     :     0.091071
  6 H s       :     0.773720  s :     0.773720
      pz      :     0.059407  p :     0.197086
      px      :     0.064612
      py      :     0.073067
  7 H s       :     0.773504  s :     0.773504
      pz      :     0.080988  p :     0.199998
      px      :     0.061179
      py      :     0.057832
  8 C s       :     2.684485  s :     2.684485
      pz      :     0.984167  p :     2.914299
      px      :     0.962531
      py      :     0.967601
      dz2     :     0.071267  d :     0.426480
      dxz     :     0.088488
      dyz     :     0.089563
      dx2y2   :     0.067933
      dxy     :     0.109229
  9 H s       :     0.675245  s :     0.675245
      pz      :     0.139808  p :     0.407983
      px      :     0.194606
      py      :     0.073570
 10 H s       :     0.781043  s :     0.781043
      pz      :     0.090693  p :     0.199644
      px      :     0.057357
      py      :     0.051593
 11 H s       :     0.773716  s :     0.773716
      pz      :     0.059400  p :     0.197087
      px      :     0.064628
      py      :     0.073059
 12 H s       :     0.773506  s :     0.773506
      pz      :     0.080995  p :     0.199999
      px      :     0.061174
      py      :     0.057830
 13 O s       :     3.473150  s :     3.473150
      pz      :     1.386662  p :     4.393893
      px      :     1.186858
      py      :     1.820374
      dz2     :     0.010307  d :     0.070003
      dxz     :     0.031757
      dyz     :     0.006156
      dx2y2   :     0.015810
      dxy     :     0.005973
 14 H s       :     0.681133  s :     0.681133
      pz      :     0.167756  p :     0.407136
      px      :     0.107917
      py      :     0.131464

SPIN
  0 C s       :    -0.000005  s :    -0.000005
      pz      :    -0.000165  p :    -0.000329
      px      :    -0.000119
      py      :    -0.000044
      dz2     :    -0.000206  d :    -0.000026
      dxz     :     0.000130
      dyz     :     0.000276
      dx2y2   :    -0.000174
      dxy     :    -0.000052
  1 C s       :    -0.000005  s :    -0.000005
      pz      :    -0.000166  p :    -0.000330
      px      :    -0.000120
      py      :    -0.000044
      dz2     :    -0.000206  d :    -0.000025
      dxz     :     0.000131
      dyz     :     0.000276
      dx2y2   :    -0.000174
      dxy     :    -0.000052
  2 H s       :     0.000079  s :     0.000079
      pz      :    -0.000062  p :    -0.000072
      px      :    -0.000008
      py      :    -0.000002
  3 C s       :    -0.000800  s :    -0.000800
      pz      :    -0.001850  p :    -0.002823
      px      :     0.000683
      py      :    -0.001656
      dz2     :     0.000299  d :     0.015952
      dxz     :     0.000745
      dyz     :     0.007364
      dx2y2   :     0.002781
      dxy     :     0.004764
  4 H s       :     0.000079  s :     0.000079
      pz      :    -0.000062  p :    -0.000072
      px      :    -0.000008
      py      :    -0.000002
  5 C s       :     0.011195  s :     0.011195
      pz      :     0.063533  p :     0.179760
      px      :     0.109967
      py      :     0.006259
      dz2     :    -0.000472  d :    -0.006220
      dxz     :    -0.003629
      dyz     :     0.000053
      dx2y2   :    -0.001791
      dxy     :    -0.000381
  6 H s       :     0.004649  s :     0.004649
      pz      :     0.000071  p :    -0.000197
      px      :     0.000071
      py      :    -0.000339
  7 H s       :     0.007487  s :     0.007487
      pz      :     0.000030  p :     0.001363
      px      :     0.000772
      py      :     0.000562
  8 C s       :    -0.000801  s :    -0.000801
      pz      :    -0.001849  p :    -0.002830
      px      :     0.000678
      py      :    -0.001659
      dz2     :     0.000298  d :     0.015951
      dxz     :     0.000744
      dyz     :     0.007363
      dx2y2   :     0.002778
      dxy     :     0.004768
  9 H s       :    -0.011085  s :    -0.011085
      pz      :     0.024692  p :     0.084432
      px      :     0.060364
      py      :    -0.000625
 10 H s       :    -0.002892  s :    -0.002892
      pz      :     0.004876  p :     0.012996
      px      :     0.007957
      py      :     0.000163
 11 H s       :     0.004649  s :     0.004649
      pz      :     0.000071  p :    -0.000196
      px      :     0.000072
      py      :    -0.000339
 12 H s       :     0.007486  s :     0.007486
      pz      :     0.000030  p :     0.001362
      px      :     0.000770
      py      :     0.000562
 13 O s       :     0.019025  s :     0.019025
      pz      :     0.226442  p :     0.642804
      px      :     0.409678
      py      :     0.006685
      dz2     :     0.000901  d :     0.005427
      dxz     :     0.001546
      dyz     :     0.000472
      dx2y2   :     0.001575
      dxy     :     0.000933
 14 H s       :    -0.014744  s :    -0.014744
      pz      :     0.012387  p :     0.028755
      px      :     0.020378
      py      :    -0.004011


                      *****************************
                      * MAYER POPULATION ANALYSIS *
                      *****************************

  NA   - Mulliken gross atomic population
  ZA   - Total nuclear charge
  QA   - Mulliken gross atomic charge
  VA   - Mayer's total valence
  BVA  - Mayer's bonded valence
  FA   - Mayer's free valence

  ATOM       NA         ZA         QA         VA         BVA        FA
  0 C      6.1925     6.0000    -0.1925     4.1101     3.7054     0.4047
  1 C      6.1925     6.0000    -0.1925     4.1101     3.7054     0.4047
  2 H      0.8494     1.0000     0.1506     0.9784     0.9121     0.0663
  3 C      6.1756     6.0000    -0.1756     4.1569     3.8142     0.3427
  4 H      0.8494     1.0000     0.1506     0.9784     0.9121     0.0663
  5 C      6.3318     6.0000    -0.3318     4.3670     3.9271     0.4399
  6 H      0.8553     1.0000     0.1447     0.9943     0.9254     0.0689
  7 H      0.8638     1.0000     0.1362     0.9940     0.9235     0.0705
  8 C      6.1755     6.0000    -0.1755     4.1568     3.8141     0.3427
  9 H      0.8238     1.0000     0.1762     1.1123     1.0266     0.0857
 10 H      0.8632     1.0000     0.1368     0.9922     0.9235     0.0688
 11 H      0.8553     1.0000     0.1447     0.9943     0.9254     0.0689
 12 H      0.8638     1.0000     0.1362     0.9940     0.9235     0.0705
 13 O      8.3251     8.0000    -0.3251     2.1378     1.2249     0.9130
 14 H      0.7829     1.0000     0.2171     1.0102     0.9377     0.0725

  Mayer bond orders larger than 0.100000
B(  0-C ,  1-C ) :   1.7586 B(  0-C ,  2-H ) :   0.8912 B(  0-C ,  8-C ) :   1.0123 
B(  1-C ,  3-C ) :   1.0124 B(  1-C ,  4-H ) :   0.8912 B(  3-C ,  5-C ) :   0.9922 
B(  3-C ,  6-H ) :   0.8983 B(  3-C ,  7-H ) :   0.8798 B(  5-C ,  8-C ) :   0.9922 
B(  5-C ,  9-H ) :   0.7972 B(  5-C , 10-H ) :   0.8895 B(  5-C , 13-O ) :   0.1471 
B(  8-C , 11-H ) :   0.8983 B(  8-C , 12-H ) :   0.8798 B(  9-H , 13-O ) :   0.2049 
B( 13-O , 14-H ) :   0.9124 



--------------------------------------------------------------------------------
                                    TIMINGS
--------------------------------------------------------------------------------


Total execution time                   ...     2886.097 sec

Fock Matrix Formation                  ...        5.955 sec (  0.2%)
Initial Guess                          ...        0.540 sec (  0.0%)
DIIS Solver                            ...       46.360 sec (  1.6%)
State Vector Update                    ...        1.467 sec (  0.1%)
Sigma-vector construction              ...     1347.844 sec ( 46.7%)
  <0|H|D>                              ...        0.249 sec (  0.0% of sigma)
  <D|H|D>(0-ext Fock)                  ...        3.685 sec (  0.3% of sigma)
  <D|H|D>(0-ext)                       ...       25.333 sec (  1.9% of sigma)
  <D|H|D>(2-ext Fock)                  ...        1.301 sec (  0.1% of sigma)
  <D|H|D>(2-ext)                       ...      103.038 sec (  7.6% of sigma)
  <D|H|D>(4-ext)                       ...      593.580 sec ( 44.0% of sigma)
  <S|H|0>                              ...      332.728 sec ( 24.7% of sigma)
  <S|H|S>                              ...        0.012 sec (  0.0% of sigma)
  <S|H|D>(1-ext)                       ...        0.573 sec (  0.0% of sigma)
  <D|H|S>(1-ext)                       ...        3.438 sec (  0.3% of sigma)
  Fock-dressing                        ...       52.683 sec (  3.9% of sigma)
  (ik|jl)-dressing                     ...       47.595 sec (  3.5% of sigma)
  (ij|ab),(ia|jb)-dressing             ...      172.508 sec ( 12.8% of sigma)
  Pair energies                        ...        0.592 sec (  0.0% of sigma)
Total Time for computing (T)           ...     1125.441 sec ( 39.0% of ALL)
  I/O of integral and amplitudes       ...      111.952 sec (  9.9% of (T))
  External N**7 contributions          ...      499.848 sec ( 44.4% of (T))
  Internal N**7 contributions          ...       55.304 sec (  4.9% of (T))
  N**6 triples energy contributions    ...      442.619 sec ( 39.3% of (T))


Maximum memory used throughout the entire MDCI-calculation: 7237.5 MB

-------------------------   --------------------
FINAL SINGLE POINT ENERGY      -270.657655589342
-------------------------   --------------------



           ************************************************************
           *        Program running with 8 parallel MPI-processes     *
           *              working on a common directory               *
           ************************************************************

------------------------------------------------------------------------------
                              ORCA PROPERTY CALCULATIONS
------------------------------------------------------------------------------

GBWName                                 ... sp.gbw
Number of atoms                         ...     15
Number of basis functions               ...    297
Max core memory                         ...   9000 MB

Electric properties:
Dipole moment                           ... YES
Quadrupole moment                       ...  NO
Static polarizability (Dipole/Dipole)   ...  NO
Static polarizability (Dipole/Quad.)    ...  NO
Static polarizability (Quad./Quad.)     ...  NO
Static polarizability (Velocity)        ...  NO
Static hyperpolarizability              ...  NO

Atomic electric properties:
Dipole moment                           ...  NO
Quadrupole moment                       ...  NO
Static polarizability                   ...  NO

Choice of electric origin               ... Center of mass
Position of electric origin             ...     0.008284    -0.000006    -0.049159

General magnetic properties:
Magnetizability                         ...  NO

EPR properties:
g-Tensor (aka g-matrix)                 ...  NO
Zero-Field splitting spin-orbit         ...  NO
Zero-field splitting spin-spin          ...  NO
Hyperfine couplings                     ...  NO (   0 nuclei)
Quadrupole couplings                    ...  NO (   0 nuclei)
Contact density                         ...  NO (   0 nuclei)

NMR properties:
Chemical shifts                         ...  NO (   0 nuclei)
Spin-rotation constants                 ...  NO (   0 nuclei)
Spin-spin couplings                     ...  NO (   0 nuclei,    0 pairs)

Choice of magnetic origin               ... GIAO
Position of magnetic origin             ...     0.000000     0.000000     0.000000

Properties with geometric perturbations:
SCF Hessian                             ...  NO
IR spectrum                             ...  NO
VCD spectrum                            ...  NO
X-ray spectroscopy properties:
SCF XES/XAS/RIXS spectra                ...  NO

SCF SOC stabilization energy            ...  NO
Diagonal Born-Oppenheimer correction    ...  NO

-------------
DIPOLE MOMENT
-------------

Method             : SCF
Type of density    : Electron Density
Multiplicity       :   2
Irrep              :   0
Energy             :  -269.4279579717212982 Eh
Basis              : AO
                                X                 Y                 Z
Electronic contribution:      0.665575909      -0.000351843      -1.693772848
Nuclear contribution   :     -0.389365541       0.000288913       2.310474944
                        -----------------------------------------
Total Dipole Moment    :      0.276210368      -0.000062931       0.616702096
                        -----------------------------------------
Magnitude (a.u.)       :      0.675731934
Magnitude (Debye)      :      1.717574079



--------------------
Rotational spectrum 
--------------------
 
Rotational constants in cm-1:             0.169538             0.077229             0.068052 
Rotational constants in MHz :          5082.623614          2315.264328          2040.138090 

Dipole components along the rotational axes: 
x,y,z [a.u.] :    -0.258561    -0.000059     0.624308 
x,y,z [Debye]:    -0.657209    -0.000151     1.586864 

 

-------------
DIPOLE MOMENT
-------------

Method             : MDCI(SD)
Type of density    : Electron Density
Multiplicity       :   2
Level              : Linearized density
Irrep              :   0
Energy             :     0.0000000000000000 Eh
Basis              : AO
                                X                 Y                 Z
Electronic contribution:      0.263368424      -0.000313299      -1.578742836
Nuclear contribution   :     -0.389365541       0.000288913       2.310474944
                        -----------------------------------------
Total Dipole Moment    :     -0.125997116      -0.000024386       0.731732108
                        -----------------------------------------
Magnitude (a.u.)       :      0.742500608
Magnitude (Debye)      :      1.887286559



--------------------
Rotational spectrum 
--------------------
 
Rotational constants in cm-1:             0.169538             0.077229             0.068052 
Rotational constants in MHz :          5082.623614          2315.264328          2040.138090 

Dipole components along the rotational axes: 
x,y,z [a.u.] :     0.146756    -0.000017     0.727853 
x,y,z [Debye]:     0.373023    -0.000044     1.850055 

 

Dipole moment calculation done in   0.0 sec 

Maximum memory used throughout the entire PROP-calculation: 17.1 MB

--------------------------------
SUGGESTED CITATIONS FOR THIS RUN
--------------------------------

Below you find a list of papers that are relevant to this ORCA run
We neither can nor want to force you to cite these papers, but we appreciate if you do
You receive ORCA, which is the product of decades of hard work by many enthusiastic individuals, for free
The only thing we kindly ask in return is that you cite our papers,
We deeply appreciate it, if you show your appreciation for ORCA by not just citing the generic ORCA reference.

Please note that relegating all ORCA citations to the supporting information does *not* help us.
SI sections are not indexed - citations you put there will not count into any citation statistics
But we need these citations in order to attract the funding resources that allow us to do what we are doing

Therefore, if you are a happy ORCA user, please consider citing a few of the papers listed below in the main body of your paper

In addition to the list printed below, the program has created the file sp.bibtex that contains the list in bibtex format
You can import this file easily into all common literature databanks and citation aid programs

It goes without saying that in many instances, there are alternative algorithms to achieve similar
results as the ones you have gotten from ORCA. It is, of course, also the case that in some instances
ORCA just re-implements algorithms worked out by others. We are fully aware of that and we are also
fully appreciative of our colleagues work. Hence this citation list should not be read as indicating
that the listed papers, which are focused on our own work, are the only ones worth citing. It simply
meant to make it easier for users to cite ORCA specific papers. It is not a substitute for doing your
own literature research and citing the relevant literature in a scientifically appropriate manner.

List of essential papers. We consider these as the minimum necessary citations

  1. Neese, F.
     Software update: the ORCA program system, version 6.0
     WIRES Comput. Molec. Sci. 2025 15(1), e70019
     doi.org/10.1002/wcms.70019

List of papers to cite with high priority. The work reported in these papers was absolutely
necessary for this run to complete.
Our perspective: the developers of density functionals and basis sets usually get cited in chemistry papers
Good! But without the algorithms to do something with them, the functionals or basis sets would not do anything.
Hence, in our opinion, the algorithm design and method developments papers are equally worthy of getting cited

  1. Pavosevic, F.; Neese, F.; Valeev, E.F.
     Geminal-spanning orbitals make explicitly correlated reduced-scaling coupled-cluster methods robust, yet simple
     J. Chem. Phys. 2014 141 , 
     doi.org/10.1063/1.4890002
  2. Neese, F.
     The SHARK Integral Generation and Digestion System
     J. Comp. Chem. 2022 44(3), 381
     doi.org/10.1002/jcc.26942

List of suggested additional citations. These are papers that are important in the 'surrounding' of 
of this run, or papers that preceded the highly important papers. If you like your results we are grateful for a citation.

  1. Neese, F.
     The ORCA program system
     WIRES Comput. Molec. Sci. 2012 2(1), 73-78
     doi.org/10.1002/wcms.81
  2. Neese, F.
     Software update: the ORCA program system, version 4.0
     WIRES Comput. Molec. Sci. 2018 8(1), 1-6
     doi.org/10.1002/wcms.1327
  3. Neese, F.; Wennmohs, F.; Becker, U.; Riplinger, C.
     The ORCA quantum chemistry program package
     J. Chem. Phys. 2020 152(22), 224108
     doi.org/10.1063/5.0004608
  4. Neese, F.
     Software update: The ORCA program system—Version 5.0
     WIRES Comput. Molec. Sci. 2022 12(1), e1606
     doi.org/10.1002/wcms.1606

List of optional additional citations

  1. Neese, F.
     Approximate second-order SCF convergence for spin unrestricted wavefunctions
     Chem. Phys. Lett. 2000 325(1-3), 93-98
     doi.org/10.1016/s0009-2614(00)00662-x

Timings for individual modules:

Sum of individual times          ...     2951.459 sec (=  49.191 min)
Startup calculation              ...        4.183 sec (=   0.070 min)   0.1 %
SCF iterations                   ...       52.096 sec (=   0.868 min)   1.8 %
Property integrals               ...        2.012 sec (=   0.034 min)   0.1 %
Property calculations            ...        2.069 sec (=   0.034 min)   0.1 %
MDCI module                      ...     2891.099 sec (=  48.185 min)  98.0 %
                             ****ORCA TERMINATED NORMALLY****
TOTAL RUN TIME: 0 days 0 hours 49 minutes 13 seconds 380 msec
