
                                 *****************
                                 * O   R   C   A *
                                 *****************

                                            #,                                       
                                            ###                                      
                                            ####                                     
                                            #####                                    
                                            ######                                   
                                           ########,                                 
                                     ,,################,,,,,                         
                               ,,#################################,,                 
                          ,,##########################################,,             
                       ,#########################################, ''#####,          
                    ,#############################################,,   '####,        
                  ,##################################################,,,,####,       
                ,###########''''           ''''###############################       
              ,#####''   ,,,,##########,,,,          '''####'''          '####       
            ,##' ,,,,###########################,,,                        '##       
           ' ,,###''''                  '''############,,,                           
         ,,##''                                '''############,,,,        ,,,,,,###''
      ,#''                                            '''#######################'''  
     '                                                          ''''####''''         
             ,#######,   #######,   ,#######,      ##                                
            ,#'     '#,  ##    ##  ,#'     '#,    #''#        ,####,    ,#,          
            ##       ##  ##   ,#'  ##            #'  '#       #'       ,# #          
            ##       ##  #######   ##           ,######,      #####,      #          
            '#,     ,#'  ##    ##  '#,     ,#' ,#      #,     #,   #      #          
             '#######'   ##     ##  '#######'  #'      '#     '####' #    #          



                #########################################################
                #                        -***-                          #
                #          Department of theory and spectroscopy        #
                #                                                       #
                #                      Frank Neese                      #
                #                                                       #
                #     Directorship, Architecture, Infrastructure        #
                #                    SHARK, DRIVERS                     #
                #        Core code/Algorithms in most modules           #
                #                                                       #
                #        Max Planck Institute fuer Kohlenforschung      #
                #                Kaiser Wilhelm Platz 1                 #
                #                 D-45470 Muelheim/Ruhr                 #
                #                      Germany                          #
                #                                                       #
                #                  All rights reserved                  #
                #                        -***-                          #
                #########################################################


                         Program Version 6.1.1  -  RELEASE   -
                                (GIT: $487d211c$)
                          ($2025-11-21 10:33:24 +0100$)


 With contributions from (in alphabetic order):
[Max-Planck-Institut fuer Kohlenforschung]                               
  Daniel Aravena         : Magnetic Suceptibility                        
  Michael Atanasov       : Ab Initio Ligand Field Theory (pilot matlab implementation)
  Alexander A. Auer      : GIAO ZORA, VPT2 properties, NMR spectrum      
  Ute Becker             : All parallelization in ORCA, NUMFREQ, NUMCALC 
  Giovanni Bistoni       : ED, misc. LED, open-shell LED, HFLD           
  Dmytro Bykov           : pre 5.0 version of the SCF Hessian            
  Marcos Casanova-Páez   : Triplet and SCS-CIS(D). UHF-(DLPNO)-IP/EA/STEOM-CCSD. UHF-CVS-IP/STEOM-CCSD   
  Vijay G. Chilkuri      : MRCI spin determinant printing, contributions to CSF-ICE 
  Pauline Colinet        : FMM embedding                                 
  Dipayan Datta          : RHF DLPNO-CCSD density                        
  Achintya Kumar Dutta   : EOM-CC, STEOM-CC                              
  Nicolas Foglia         : Exact transition moments, OPA infrastructure, MCD improvements    
  Dmitry Ganyushin       : Spin-Orbit,Spin-Spin,Magnetic field MRCI      
  Miquel Garcia-Rates    : C-PCM and meta-GGA Hessian, CCSD/C-PCM, Gaussian charge scheme 
  Tiago L. C. Gouveia    : GS-ROHF, GS-ROCIS                             
  Yang Guo               : DLPNO-NEVPT2, F12-NEVPT2, CIM, IAO-localization        
  Andreas Hansen         : Spin unrestricted coupled pair/coupled cluster methods 
  Ingolf Harden          : AUTO-CI MPn and infrastructure                
  Benjamin Helmich-Paris : MC-RPA, TRAH-(SCF,CASSCF), AVAS, COSX integrals, SCF dyn. polar., MC-PDFT, srDFT 
  Lee Huntington         : MR-EOM, pCC                                   
  Robert Izsak           : Overlap fitted RIJCOSX, COSX-SCS-MP3, EOM     
  Riya Kayal             : Wick's Theorem for AUTO-CI, AUTO-CI UHF-CCSDT 
  Emily Kempfer          : AUTO-CI RHF CISDT and CCSDT, approximate NEVPT4
  Christian Kollmar      : KDIIS, OOCD, Brueckner-CCSD(T), CCSD density, CASPT2, CASPT2-K, improved NEVPT2 
  Axel Koslowski         : Symmetry handling                             
  Simone Kossmann        : meta-GGA functionals, TD-DFT gradient, OOMP2, (MP2 Hessian; deprecated post 5.0) 
  Lucas Lang             : DCDCAS, Hyperfine gauge corrections, ICE-SOC+SSC
  Marvin Lechner         : AUTO-CI (C++ implementation), FIC-MRCC        
  Spencer Leger          : CASSCF response                               
  Dagmar Lenk            : GEPOL surface, SMD, ORCA-2-JSON               
  Dimitrios Liakos       : Extrapolation schemes; Compound Job, Property file
  Dimitrios Manganas     : Further ROCIS development; embedding schemes. LFT, Crystal Embedding 
  Dimitrios Pantazis     : SARC Basis sets                               
  Anastasios Papadopoulos: AUTO-CI, single reference methods and gradients 
  Taras Petrenko         : pre 6.0 DFT Hessian and TD-DFT gradient,  ECA, NRVS 
  Petra Pikulova         : Analytic Raman intensities                    
  Peter Pinski           : DLPNO-MP2, DLPNO-MP2 Gradient                 
  Shashank Vittal Rao    : ES-AILFT, MagRelax                            
  Christoph Reimann      : Effective Core Potentials                     
  Marius Retegan         : Local ZFS, SOC                                
  Christoph Riplinger    : Optimizer, TS searches, QM/MM, DLPNO-CCSD(T), (RO)-DLPNO pert. Triples 
  Michael Roemelt        : Original ROCIS implementation, recursive CI coupling coefficients
  Masaaki Saitow         : Open-shell DLPNO-CCSD energy and density      
  Barbara Sandhoefer     : DKH picture change effects                    
  Yorick L. A. Schmerwitz: GMF and freeze-and-release deltaSCF, NEB S-IDPP initial path                    
  Kantharuban Sivalingam : CASSCF convergence/infrastructure, NEVPT2, NEVPT3, NEVPT4(SD), FIC-MRCI and CEPA variants
  Bernardo de Souza      : ESD, SOC TD-DFT                               
  Georgi L. Stoychev     : AutoAux, RI-MP2 NMR, DLPNO-MP2 response, X2C  
  Van Anh Tran           : RI-MP2 g-tensors                              
  Willem Van den Heuvel  : Paramagnetic NMR                              
  Zikuan Wang            : NOTCH, Electric field optimization            
  Frank Wennmohs         : Technical directorship and infrastructure     
  Hang Xu                : AUTO-CI-Response properties                   
                                                                         
[FACCTs GmbH]                                                            
  Markus Bursch, Nicolas Foglia, Miquel Garcia-Rates, Ingolf Harden, Hagen Neugebauer, Anastasios Papadopoulos, 
  Christoph Riplinger, Bernardo de Souza, Georgi L. Stoychev                                                    
                                                                 
  APM, various basis sets, CI-OPT, improved COSX, DLPNO-Multilevel,           
  DOCKER, DRACO, updates on ESD, Fragmentator, GOAT, IRC, LR-CPCM, L-BFGS, MBIS, meta-GGA TD-DFT gradient, ML-optimized integration grids, 
  MM, NACMEs, nearIR, NEB, NEB-TS, NL-DFT gradient (VV10), 2- and 3-layer-ONIOM, interface openCOSMO-RS, QMMM,   
  Crystal-QMMM, RESP, rigid body optimization, SF, symmetry and pop. for TD-DFT, various functionals, SOLVATOR                                   
                                                                         
[Other institutions]                                                     
  V. Asgeirsson          : NEB                                           
  Christoph Bannwarth    : sTDA-DFT, sTD-DFT, PBEh-3c, B97-3c, D3        
  Giovanni Bistoni       : ETS/NOCV, ADLD/ADEX, COVALED                  
  Martin Brehm           : Molecular dynamics                            
  Ronald Cardenas        : ETS/NOCV                                      
  Martina Colucci        : COVALED                                       
  Sebastian Ehlert       : rSCAN, r2SCAN, r2SCAN-3c, D4, dhf basis sets  
  Marvin Friede          : D4 for Fr, Ra, Ac-Lr                          
  Lars Goerigk           : TD-DFT with DH, B97 family of functionals     
  Stefan Grimme          : VdW corrections, initial TS optimization, DFT functionals, gCP, sTDA/sTD-DF 
  Waldemar Hujo          : DFT-NL                                        
  H. Jonsson             : NEB                                           
  Holger Kruse           : gCP                                           
  Marcel Mueller         : wB97X-3c, vDZP basis set                      
  Hagen Neugebauer       : wr2SCAN, Native XTB                           
  Gianluca Regni         : ADLD/ADEX                                     
  Tobias Risthaus        : pre 6.0 range-separated hybrid DFT and stability analysis
  Lukas Wittmann         : regularized MP2, r2SCAN double-hybrids, wr2SCAN        
                                                                         
We gratefully acknowledge several colleagues who have allowed us to      
interface, adapt or use parts of their codes:                            
  Ed Valeev, F. Pavosevic, A. Kumar             : LibInt (2-el integral package), F12 methods 
  Garnet Chan, S. Sharma, J. Yang, R. Olivares  : DMRG                   
  Ulf Ekstrom                                   : XCFun DFT Library      
  Mihaly Kallay                                 : mrcc  (arbitrary order and MRCC methods)
  Frank Weinhold                                : gennbo (NPA and NBO analysis)           
  Simon Mueller                                 : openCOSMO-RS                            
  Christopher J. Cramer and Donald G. Truhlar   : smd solvation model                     
  S Lehtola, MJT Oliveira, MAL Marques          : LibXC Library                           
  Liviu Ungur et al                             : ANISO software                          


 Your calculation uses the libint2 library for the computation of 2-el integrals
 For citations please refer to: http://libint.valeyev.net

 Your ORCA version has been built with support for libXC version: 7.0.0
 For citations please refer to: https://libxc.gitlab.io

 This ORCA versions uses:
   CBLAS   interface :  Fast vector & matrix operations
   LAPACKE interface :  Fast linear algebra routines
   SCALAPACK package :  Parallel linear algebra routines
   Shared memory     :  Shared parallel matrices
   BLAS/LAPACK       :  OpenBLAS 0.3.29  USE64BITINT DYNAMIC_ARCH NO_AFFINITY SkylakeX SINGLE_THREADED
        Core in use  :  SkylakeX
   Copyright (c) 2011-2014, The OpenBLAS Project


  ***********************************
  * Starting time: Thu Mar 12 16:10:15 2026
  * Host name:     c4-21
  * Process ID:    2051588
  * Working dir.:  /tmp/lscratch/avcopan/43559342
  ***********************************

NOTE: MaxCore=9000 MB was set to SCF,MP2,MDCI,CIPSI,MRCI,RASCI and CIS
      => If you want to overwrite this, your respective input block should be placed after the MaxCore statement


***************************************
The coordinates will be read from file: opt.xyz
***************************************


================================================================================

----- Orbital basis set information -----
Your calculation utilizes the basis: cc-pVDZ-F12 

----- AuxC basis set information -----
Your calculation utilizes the auxiliary basis: cc-pVTZ/C 
  Obtained from the EMSL Basis Set Exchange (bse.pnl.gov) Feb. 2017
  H-He, B-F, Al-Ar, Ga-Kr : F. Weigend, A. Kohn, C. Hattig, J. Chem. Phys. 116, 3175 (2002)
             Li-Be, Na-Mg : C. Haettig, Phys. Chem. Chem. Phys. 7, 59 (2005)
                       Ne : C. Haettig, Phys. Chem. Chem. Phys. 7, 59 (2005)
                            F. Weigend, A. Kohn, C. Hattig, J. Chem. Phys. 116, 3175 (2002)
                    Sc-Zn : J. G. Hill, J. A. Platts, J. Chem. Phys. 128, 044104 (2008)

----- CABS information -----
Your calculation utilizes the basis: cc-pVDZ-F12 


                    <<< The CABS basis set will be decontracted >>>

================================================================================
                                        WARNINGS
                       Please study these warnings very carefully!
================================================================================


WARNING: Post HF methods need fully converged wavefunctions
  ===> : Setting SCFConvForced true
         You can overwrite this default with %scf ConvForced false 


WARNING: MDCI localization with Augmented Hessian Foster-Boys
  ===> : Switching off randomization!

WARNING: UseCISUpdate is  only available for RHF calculations...
  ===> : Setting UseCISUpdate = false 

================================================================================
                                       INPUT FILE
================================================================================
NAME = sp.inp
|  1> # 
|  2> % MaxCore 9000
|  3> ! uhf ccsd(t)-f12/ri cc-pvdz-f12 cc-pvdz-f12-cabs cc-pvtz/c
|  4> * xyzfile 0 1 opt.xyz
|  5> 
|  6> 
|  7>                          ****END OF INPUT****
================================================================================

                       ****************************
                       * Single Point Calculation *
                       ****************************

---------------------------------
CARTESIAN COORDINATES (ANGSTROEM)
---------------------------------
  H      0.000000    0.000000   -0.000837
  H      0.000000    0.000000    0.740837

----------------------------
CARTESIAN COORDINATES (A.U.)
----------------------------
  NO LB      ZA    FRAG     MASS         X           Y           Z
   0 H     1.0000    0     1.008    0.000000    0.000000   -0.001582
   1 H     1.0000    0     1.008    0.000000    0.000000    1.399979

--------------------------------
INTERNAL COORDINATES (ANGSTROEM)
--------------------------------
 H      0   0   0     0.000000000000     0.00000000     0.00000000
 H      1   0   0     0.741674194332     0.00000000     0.00000000

---------------------------
INTERNAL COORDINATES (A.U.)
---------------------------
 H      0   0   0     0.000000000000     0.00000000     0.00000000
 H      1   0   0     1.401561107884     0.00000000     0.00000000

---------------------
BASIS SET INFORMATION
---------------------
There are 1 groups of distinct atoms

 Group   1 Type H   : 5s2p contracted to 3s2p pattern {311/11}

Atom   0H    basis set group =>   1
Atom   1H    basis set group =>   1
---------------------------------
AUXILIARY/C BASIS SET INFORMATION
---------------------------------
There are 1 groups of distinct atoms

 Group   1 Type H   : 4s3p2d1f contracted to 4s3p2d1f pattern {1111/111/11/1}

Atom   0H    basis set group =>   1
Atom   1H    basis set group =>   1
--------------
CABS BASIS SET
--------------
There are 1 groups of distinct atoms

 Group   1 Type H   : 8s5p2d contracted to 8s5p2d pattern {11111111/11111/11}

Atom   0H    basis set group =>   1
Atom   1H    basis set group =>   1
------------------------------------------------------------------------------
                             ORCA STARTUP CALCULATIONS
------------------------------------------------------------------------------
------------------------------------------------------------------------------
                   ___                                                        
                  /   \      - P O W E R E D   B Y -                         
                 /     \                                                     
                 |  |  |   _    _      __       _____    __    __             
                 |  |  |  | |  | |    /  \     |  _  \  |  |  /  |          
                  \  \/   | |  | |   /    \    | | | |  |  | /  /          
                 / \  \   | |__| |  /  /\  \   | |_| |  |  |/  /          
                |  |  |   |  __  | /  /__\  \  |    /   |      \           
                |  |  |   | |  | | |   __   |  |    \   |  |\   \          
                \     /   | |  | | |  |  |  |  | |\  \  |  | \   \       
                 \___/    |_|  |_| |__|  |__|  |_| \__\ |__|  \__/        
                                                                              
                      - O R C A' S   B I G   F R I E N D -                    
                                      &                                       
                       - I N T E G R A L  F E E D E R -                       
                                                                              
 v1 FN, 2020, v2 2021, v3 2022-2024                                           
------------------------------------------------------------------------------


----------------------
SHARK INTEGRAL PACKAGE
----------------------

Number of atoms                             ...      2
Number of basis functions                   ...     18
Number of shells                            ...     10
Maximum angular momentum                    ...      1
Integral batch strategy                     ... SHARK/LIBINT Hybrid
RI-J (if used) integral strategy            ... SPLIT-RIJ (Revised 2003 algorithm where possible)
Printlevel                                  ...      1
Contraction scheme used                     ... SEGMENTED contraction
Prescreening option                         ... SCHWARTZ
   Thresh                                   ... 1.000e-10
   Tcut                                     ... 1.000e-11
   Tpresel                                  ... 1.000e-11 
Coulomb Range Separation                    ... NOT USED
Exchange Range Separation                   ... NOT USED
Multipole approximations                    ... NOT USED
Finite Nucleus Model                        ... NOT USED
CABS basis                                  ... AVAILABLE
   # of basis functions in CABS             ...     66
   # of shells in CABS                      ...     30
   Maximum angular momentum in CABS         ...      2
F12 Gamma exponent                          ...  0.900000
F12-Geminal                                 ...  6 primitives
l =0 ng=6 ofs=0
   a( 0) =     0.220850853  d( 0)=    -0.314424804 
   a( 1) =     1.004019154  d( 1)=    -0.303695753 
   a( 2) =     3.621217265  d( 2)=    -0.168069685 
   a( 3) =    12.162483048  d( 3)=    -0.098115813 
   a( 4) =    45.855331575  d( 4)=    -0.060246641 
   a( 5) =   254.234600970  d( 5)=    -0.037263542 
Auxiliary Coulomb fitting basis             ... NOT available
Auxiliary J/K fitting basis                 ... NOT available
Auxiliary Correlation fitting basis         ... AVAILABLE
   # of basis functions in Aux-C            ...     60
   # of shells in Aux-C                     ...     20
   Maximum angular momentum in Aux-C        ...      3
Auxiliary 'external' fitting basis          ... NOT available

Checking pre-screening integrals            ... done (  0.0 sec) Dimension = 10
   => SHARK Basis and OBASIS are compatible. Storing Pre-screening
Shell pair information
Shell pair cut-off parameter TPreSel        ...   1.0e-11
Total number of shell pairs                 ...        55
Shell pairs after pre-screening             ...        55
Total number of primitive shell pairs       ...       111
Primitive shell pairs kept                  ...       110
          la=0 lb=0:     21 shell pairs
          la=1 lb=0:     24 shell pairs
          la=1 lb=1:     10 shell pairs

Checking whether 4 symmetric matrices of dimension 18 fit in memory
:Max Core in MB      =   9000.00
 MB in use           =      2.40
 MB left             =   8997.60
 MB needed           =      0.01
 Data fit in memory  = YES
Calculating RI/C V-Matrix + Cholesky decomp.... done (  0.0 sec)
Calculating Nuclear repulsion               ... done (  0.0 sec) ENN=      0.713490117823 Eh

Diagonalization of the overlap matrix:
Smallest eigenvalue                        ... 3.446e-03
Time for diagonalization                   ...    0.002 sec
Threshold for overlap eigenvalues          ... 1.000e-07
Number of eigenvalues below threshold      ... 0
Time for construction of square roots      ...    0.001 sec
Total time needed                          ...    0.003 sec

-------------------
DFT GRID GENERATION
-------------------

General Integration Accuracy     IntAcc      ... 4.388
Radial Grid Type                 RadialGrid  ... OptM3 with GC (2021)
Angular Grid (max. ang.)         AngularGrid ... 4 (Lebedev-302)
Angular grid pruning method      GridPruning ... 4 (adaptive)
Weight generation scheme         WeightScheme... mBecke (2022)
Basis function cutoff            BFCut       ... 1.0000e-10
Integration weight cutoff        WCut        ... 1.0000e-14
Partially contracted basis set               ... off
Rotationally invariant grid construction     ... off
Angular grids for H and He will be reduced by one unit

Total number of grid points                  ...     6648
Total number of batches                      ...      104
Average number of points per batch           ...       63
Average number of grid points per atom       ...     3324
Grids setup in   0.0 sec
Initializing property integral containers    ... done (  0.0 sec)

SHARK setup successfully completed in   0.1 seconds

Maximum memory used throughout the entire STARTUP-calculation: 6.7 MB
-------------------------------------------------------------------------------
                                 ORCA GUESS
                   Start orbitals & Density for SCF / CASSCF
-------------------------------------------------------------------------------

------------
SCF SETTINGS
------------
Hamiltonian:
 Ab initio Hamiltonian  Method          .... Hartree-Fock(GTOs)


General Settings:
 Integral files         IntName         .... sp
 Hartree-Fock type      HFTyp           .... UHF
 Total Charge           Charge          ....    0
 Multiplicity           Mult            ....    1
 Number of Electrons    NEL             ....    2
 Basis Dimension        Dim             ....   18
 Nuclear Repulsion      ENuc            ....      0.7134901178 Eh

Convergence Acceleration:
 AO-DIIS                CNVDIIS         .... on
   Start iteration      DIISMaxIt       ....    12
   Startup error        DIISStart       ....  0.200000
   # of expansion vecs  DIISMaxEq       ....     5
   Bias factor          DIISBfac        ....   1.050
   Max. coefficient     DIISMaxC        ....  10.000
 MO-DIIS                CNVKDIIS        .... off
 Trust-Rad. Augm. Hess. CNVTRAH         .... auto
   Auto Start mean grad. ratio tolernc. ....  1.125000
   Auto Start start iteration           ....    50
   Auto Start num. interpolation iter.  ....    10
   Max. Number of Micro iterations      ....    24
   Max. Number of Macro iterations      .... Maxiter - #DIIS iter
   Number of Davidson start vectors     ....     2
   Converg. threshold    (grad. norm)   ....   5.000e-05
   Grad. Scal. Fac. for Micro threshold ....   0.100
   Minimum threshold for Micro iter.    ....   1.000e-02
   NR start threshold (gradient norm)   ....   1.000e-04
   Initial trust radius                 ....   0.400
   Minimum AH scaling param. (alpha)    ....   1.000
   Maximum AH scaling param. (alpha)    .... 1000.000
   Quad. conv. algorithm                .... NR
   White noise on init. David. guess    .... on
   Maximum white noise                  ....   0.010
   Pseudo random numbers                .... off
   Inactive MOs                         .... canonical
   Orbital update algorithm             .... Taylor
   Preconditioner                       .... Diag
   Full preconditioner red. dimension   ....   250
 SOSCF                 CNVSOSCF           .... on
   Start iteration     SOSCFMaxIt         ....   150
   Startup grad/error  SOSCFStart         ....  0.003300
   Hessian update      SOSCFHessUp        .... L-BFGS
   Autom. constraints  SOSCFAutoConstrain .... off
 Level Shifting         CNVShift        .... on
   Level shift para.    LevelShift      ....    0.2500
   Turn off err/grad.   ShiftErr        ....    0.0010
 Zerner damping         CNVZerner       .... off
 Static damping         CNVDamp         .... on
   Fraction old density DampFac         ....    0.7000
   Max. Damping (<1)    DampMax         ....    0.9800
   Min. Damping (>=0)   DampMin         ....    0.0000
   Turn off err/grad.   DampErr         ....    0.1000

SCF Procedure:
 Maximum # iterations   MaxIter         ....   125
 SCF integral mode      SCFMode         .... Direct
   Integral package                     .... SHARK and LIBINT hybrid scheme
 Reset frequency        DirectResetFreq ....    20
 Integral Threshold     Thresh          ....  1.000e-10 Eh
 Primitive CutOff       TCut            ....  1.000e-11 Eh

Convergence Tolerance:
 Convergence Check Mode ConvCheckMode   .... Total+1el-Energy
 Convergence forced     ConvForced      .... 1
 Energy Change          TolE            ....  1.000e-06 Eh
 1-El. energy change                    ....  1.000e-03 Eh
 Orbital Gradient       TolG            ....  5.000e-05
 Orbital Rotation angle TolX            ....  5.000e-05
 DIIS Error             TolErr          ....  1.000e-06

------------------------------
INITIAL GUESS: MODEL POTENTIAL
------------------------------
Loading Hartree-Fock densities                     ... done
Calculating cut-offs                               ... done
Initializing the effective Hamiltonian             ... done
Setting up the integral package (SHARK)            ... done
Starting the Coulomb interaction                   ... done (   0.0 sec)
Making the grid                                    ... done (   0.0 sec)
Mapping shells                                     ... done
Starting the XC term evaluation                    ... done (   0.0 sec)
Transforming the Hamiltonian                       ... done (   0.0 sec)
Diagonalizing the Hamiltonian                      ... done (   0.0 sec)
Back transforming the eigenvectors                 ... done (   0.0 sec)
Now organizing SCF variables                       ... done
                      ------------------
                      INITIAL GUESS DONE (   0.0 sec)
                      ------------------
             **** ENERGY FILE WAS UPDATED (sp.en.tmp) ****
Finished Guess after   0.0 sec
Maximum memory used throughout the entire GUESS-calculation: 3.2 MB

-------------------------------------------------------------------------------------------
                                      ORCA LEAN-SCF
                              memory conserving SCF solver
-------------------------------------------------------------------------------------------

----------------------------------------D-I-I-S--------------------------------------------
Iteration    Energy (Eh)           Delta-E    RMSDP     MaxDP     DIISErr   Damp  Time(sec)
-------------------------------------------------------------------------------------------
               ***  Starting incremental Fock matrix formation  ***
    1     -1.1306079393105783     0.00e+00  3.15e-04  1.58e-03  2.53e-02  0.700   0.0
    2     -1.1312055895885915    -5.98e-04  2.81e-04  1.28e-03  1.97e-02  0.700   0.0
                               ***Turning on AO-DIIS***
    3     -1.1316710373659242    -4.65e-04  2.51e-04  1.04e-03  1.48e-02  0.700   0.0
    4     -1.1320182938965282    -3.47e-04  6.50e-04  2.50e-03  1.07e-02  0.000   0.0
                              *** Initializing SOSCF ***
---------------------------------------S-O-S-C-F--------------------------------------
Iteration    Energy (Eh)           Delta-E    RMSDP     MaxDP     MaxGrad    Time(sec)
--------------------------------------------------------------------------------------
    5     -1.1329149886262622    -8.97e-04  5.19e-05  2.96e-04  3.70e-04     0.0
               *** Restarting incremental Fock matrix formation ***
    6     -1.1329161826280698    -1.19e-06  2.29e-05  1.35e-04  2.34e-04     0.0
    7     -1.1329163415410373    -1.59e-07  7.10e-06  4.22e-05  5.31e-05     0.0
                 **** Energy Check signals convergence ****

               *****************************************************
               *                     SUCCESS                       *
               *           SCF CONVERGED AFTER   7 CYCLES          *
               *****************************************************

             **** ENERGY FILE WAS UPDATED (sp.en.tmp) ****

----------------
TOTAL SCF ENERGY
----------------

Total Energy       :         -1.13291635062001 Eh             -30.82822 eV

Components:
Nuclear Repulsion  :          0.71349011782282 Eh              19.41505 eV
Electronic Energy  :         -1.84640646844284 Eh             -50.24327 eV
One Electron Energy:         -2.50445630623628 Eh             -68.14972 eV
Two Electron Energy:          0.65804983779344 Eh              17.90645 eV

Virial components:
Potential Energy   :         -2.25513730589261 Eh             -61.36541 eV
Kinetic Energy     :          1.12222095527260 Eh              30.53718 eV
Virial Ratio       :          2.00953056106924

---------------
SCF CONVERGENCE
---------------

  Last Energy change         ...    1.5891e-07  Tolerance :   1.0000e-06
  Last MAX-Density change    ...    4.2169e-05  Tolerance :   1.0000e-05
  Last RMS-Density change    ...    7.1005e-06  Tolerance :   1.0000e-06
  Last DIIS Error            ...    3.6969e-04  Tolerance :   1.0000e-06
  Last Orbital Gradient      ...    5.3129e-05  Tolerance :   5.0000e-05
  Last Orbital Rotation      ...    7.6918e-05  Tolerance :   5.0000e-05


----------------------
UHF SPIN CONTAMINATION
----------------------

Expectation value of <S**2>     :     0.000000
Ideal value S*(S+1) for S=0.0   :     0.000000
Deviation                       :     0.000000

----------------
ORBITAL ENERGIES
----------------
                 SPIN UP ORBITALS
  NO   OCC          E(Eh)            E(eV) 
   0   1.0000      -0.594178       -16.1684 
   1   0.0000       0.161241         4.3876 
   2   0.0000       0.306453         8.3390 
   3   0.0000       0.524631        14.2759 
   4   0.0000       0.524631        14.2759 
   5   0.0000       0.561470        15.2784 
   6   0.0000       0.863981        23.5101 
   7   0.0000       0.864319        23.5193 
   8   0.0000       0.864319        23.5193 
   9   0.0000       1.294288        35.2194 
  10   0.0000       2.283360        62.1334 
  11   0.0000       2.700097        73.4734 

                 SPIN DOWN ORBITALS
  NO   OCC          E(Eh)            E(eV) 
   0   1.0000      -0.594178       -16.1684 
   1   0.0000       0.161241         4.3876 
   2   0.0000       0.306453         8.3390 
   3   0.0000       0.524631        14.2759 
   4   0.0000       0.524631        14.2759 
   5   0.0000       0.561470        15.2784 
   6   0.0000       0.863981        23.5101 
   7   0.0000       0.864319        23.5193 
   8   0.0000       0.864319        23.5193 
   9   0.0000       1.294288        35.2194 
  10   0.0000       2.283360        62.1334 
  11   0.0000       2.700097        73.4734 
*Only the first 10 virtual orbitals were printed.

                    ********************************
                    * MULLIKEN POPULATION ANALYSIS *
                    ********************************

--------------------------------------------
MULLIKEN ATOMIC CHARGES AND SPIN POPULATIONS
--------------------------------------------
   0 H :   -0.000000    0.000000
   1 H :    0.000000    0.000000
Sum of atomic charges         :    0.0000000
Sum of atomic spin populations:    0.0000000

-----------------------------------------------------
MULLIKEN REDUCED ORBITAL CHARGES AND SPIN POPULATIONS
-----------------------------------------------------
CHARGE
  0 H s       :     0.982984  s :     0.982984
      pz      :     0.017016  p :     0.017016
      px      :    -0.000000
      py      :     0.000000

  1 H s       :     0.982984  s :     0.982984
      pz      :     0.017016  p :     0.017016
      px      :     0.000000
      py      :     0.000000


SPIN
  0 H s       :     0.000000  s :     0.000000
      pz      :     0.000000  p :     0.000000
      px      :     0.000000
      py      :     0.000000

  1 H s       :     0.000000  s :     0.000000
      pz      :     0.000000  p :     0.000000
      px      :     0.000000
      py      :     0.000000



                     *******************************
                     * LOEWDIN POPULATION ANALYSIS *
                     *******************************

-------------------------------------------
LOEWDIN ATOMIC CHARGES AND SPIN POPULATIONS
-------------------------------------------
   0 H :    0.000000    0.000000
   1 H :    0.000000    0.000000

----------------------------------------------------
LOEWDIN REDUCED ORBITAL CHARGES AND SPIN POPULATIONS
----------------------------------------------------
CHARGE
  0 H s       :     0.953289  s :     0.953289
      pz      :     0.046711  p :     0.046711
      px      :     0.000000
      py      :     0.000000

  1 H s       :     0.953289  s :     0.953289
      pz      :     0.046711  p :     0.046711
      px      :     0.000000
      py      :     0.000000


SPIN
  0 H s       :     0.000000  s :     0.000000
      pz      :     0.000000  p :     0.000000
      px      :     0.000000
      py      :     0.000000

  1 H s       :     0.000000  s :     0.000000
      pz      :     0.000000  p :     0.000000
      px      :     0.000000
      py      :     0.000000



                      *****************************
                      * MAYER POPULATION ANALYSIS *
                      *****************************

  NA   - Mulliken gross atomic population
  ZA   - Total nuclear charge
  QA   - Mulliken gross atomic charge
  VA   - Mayer's total valence
  BVA  - Mayer's bonded valence
  FA   - Mayer's free valence

  ATOM       NA         ZA         QA         VA         BVA        FA
  0 H      1.0000     1.0000    -0.0000     1.0000     1.0000     0.0000
  1 H      1.0000     1.0000     0.0000     1.0000     1.0000     0.0000

  Mayer bond orders larger than 0.100000
B(  0-H ,  1-H ) :   1.0000 

-------
TIMINGS
-------

Total SCF time: 0 days 0 hours 0 min 0 sec 

Total time                  ....       0.070 sec
Sum of individual times     ....       0.060 sec  ( 85.9%)

SCF preparation             ....       0.025 sec  ( 36.7%)
Fock matrix formation       ....       0.014 sec  ( 20.5%)
  Startup                   ....       0.001 sec  (  8.0% of F)
  Coulomb+Exchange Fock     ....       0.010 sec  ( 67.4% of F)
Diagonalization             ....       0.000 sec  (  0.0%)
Density matrix formation    ....       0.004 sec  (  5.7%)
Total Energy calculation    ....       0.001 sec  (  1.0%)
Population analysis         ....       0.003 sec  (  4.4%)
Orbital Transformation      ....       0.003 sec  (  3.6%)
Orbital Orthonormalization  ....       0.000 sec  (  0.0%)
DIIS solution               ....       0.006 sec  (  9.0%)
SOSCF solution              ....       0.003 sec  (  5.0%)
Finished LeanSCF after   0.1 sec

Maximum memory used throughout the entire LEANSCF-calculation: 4.7 MB

------------------------------------------------------------------------------
                         ORCA PROPERTY INTEGRAL CALCULATIONS
------------------------------------------------------------------------------

GBWName                                   ... sp.gbw
Number of atoms                           ...      2
Number of basis functions                 ...     18
Max core memory                           ...   9000 MB

Dipole integrals                          ... YES
Quadrupole integrals                      ...  NO
Linear momentum integrals                 ... YES
Angular momentum integrals                ... YES
Higher moments length integrals           ...  NO
Higher moments velocity integrals         ...  NO
Kinetic energy integrals                  ...  NO
GIAO right hand sides                     ...  NO
GIAO dipole derivative integrals          ...  NO
SOC integrals                             ...  NO
EPR diamagnetic integrals (GIAO)          ...  NO
EPR gauge integrals                       ...  NO
Field gradient integrals                  ...  NO (   0 nuclei)
Spin-dipole/Fermi contact integrals       ...  NO (   0 nuclei)
Contact density integrals                 ...  NO (   0 nuclei)
Nucleus-orbit integrals                   ...  NO (   0 nuclei)
Geometric perturbations                   ...  NO (   2 nuclei)

Choice of electric origin   ... Center of mass
Position of electric origin ... (  0.0000,  0.0000,  0.6992) 
Choice of magnetic origin   ... GIAO
Position of magnetic origin ... (  0.0000,  0.0000,  0.0000) 

Calculating integrals                     ... Electric Dipole (Length)     done (  0.0 sec)
Calculating integrals                     ... Linear Momentum              done (  0.0 sec)
Calculating integrals                     ... Angular Momentum  (ElOri)    done (  0.0 sec)

Property integrals calculated in   0.0 sec

Maximum memory used throughout the entire PROPINT-calculation: 3.3 MB


--------------------------------------------------------------------------------
                             ORCA-MATRIX DRIVEN CI
--------------------------------------------------------------------------------

--------------------------------
AUTOMATIC CHOICE OF INCORE LEVEL
--------------------------------

Memory available                           ...   4500.00 MB
Memory needed for S+T                      ...      0.01 MB
Memory needed for J+K                      ...      0.01 MB
Memory needed for DIIS                     ...      0.09 MB
Memory needed for 3-ext                    ...      0.04 MB
Memory needed for 4-ext                    ...      0.34 MB
Memory needed for triples                  ...      0.19 MB
 -> Final InCoreLevel    ... 5
 -> check shows that triples correction can be computed


Wavefunction type
-----------------
Correlation treatment                      ...      CCSD     
Single excitations                         ... ON
Orbital optimization                       ... OFF
Calculation of Z vector                    ... OFF
Calculation of Brueckner orbitals          ... OFF
Perturbative triple excitations            ... ON
Calculation of F12 correction              ... ON
   Using RI for F12 correction             ... ON
Frozen core treatment                      ... NO frozen core
Reference Wavefunction                     ... UHF
  Alpha-MOs occ    :     0 ...    0 (  1 MO's/  1 electrons)
  Beta-MOs occ     :     0 ...    0 (  1 MO's/  1 electrons)
  Alpha-MOs virt   :     1 ...   17 ( 17 MO's              )
  Beta-MOs virt    :     1 ...   17 ( 17 MO's              )
Number of AO's                             ...     18
Number of electrons                        ...      2
Number of correlated electrons             ...      2

Algorithmic settings
--------------------
Integral transformation                    ... Separate K and J transformations
K(C) Formation                             ... AO-EXCHANGE STORED
Maximum number of iterations               ...        50
Convergence tolerance (max. residuum)      ... 2.500e-05
Level shift for amplitude update           ... 2.000e-01
Maximum number of DIIS vectors             ...         7
DIIS turned on at iteration                ...         0
Damping before turning on DIIS             ...     0.500
Damping after turning on DIIS              ...     0.000
Pair specific amplitude update             ... OFF
Natural orbital iterations                 ... OFF
Perturbative natural orbital generation    ... OFF
Printlevel                                 ... 2

Memory handling:
----------------
Maximum memory for working arrays          ...   4500 MB
Data storage in matrix containers          ... UNCOMPRESSED
Data type for integral storage             ... DOUBLE
In-Core Storage of quantities:
   Amplitudes+Sigma Vector      ... YES
   J+K operators                ... YES
   DIIS vectors                 ... YES
   3-external integrals         ... YES
   4-external integrals         ... YES


Initializing the integral package          ... done
Warning: reference  - re-canonicalizations have been set to INT 1 VIRT 1
Fock densities were made 
Making Fock matrix and reference energy:

--------------------------
UNRESTRICTED FOCK OPERATOR
--------------------------

Recanonicalizing the internal orbitals
Recanonicalizing the virtual orbitals
Storing new orbitals
Time needed for Fock operator              ...            0.048 sec
Reference energy                           ...     -1.132916351

-------------------------
SHARK HALF TRANSFORMATION
-------------------------

Number of basis functions                ...     18
Number of operators                      ...      2
   Operator  0:    0-   0

   Operator  1:    0-   0

Integral generator used                  ... SHARK
Contraction scheme used                  ... SEGMENTED CONTRACTION
MaxCore in resort                        ...   9000 MB

Half transformed integrals for op=   0   ... sp.SHARK_MNPQ0.tmp
Resorted half transformed integrals      ... sp._PQMN_0.tmp
Half transformed integrals for op=   1   ... sp.SHARK_MNPQ1.tmp
Resorted half transformed integrals      ... sp._PQMN_1.tmp
Starting integral generation + half trafo... 
Half trafo (segmented) done. Total time =  0.0 sec. integrals=  0.0 sec trafo=  0.0 sec
Starting integral resorting              ... done (  0.0 sec)

SHARK half integral transformation done. Total time =  0.0 sec.

----------------------------------
J-TRAFO SECOND HALF TRANSFORMATION
----------------------------------

Generate (ij|kl)                        ... NO
Generate (ij|ka)                        ... YES
Generate (ij|ab)                        ... YES
Generate (ia|bc)                        ... NO
Generate (ab|cd)                        ... NO
Generate (pq|rs)                        ... NO

Number of operators                     ... 2
   Operator 0                           ...    0-   0 to    1-  17
   PQMN-Container name                  ... sp._PQMN_0.tmp
   IJKA-Container name    op=0,0        ... sp._IJKA_0.tmp
   IJAB-Container name    op=0,0        ... sp._IJAB_0.tmp
   IJKA-Container name    op=0,1        ... sp._IJKA_2.tmp
   IJAB-Container name    op=0,1        ... sp._IJAB_2.tmp
   Operator 1                           ...    0-   0 to    1-  17
   PQMN-Container name                  ... sp._PQMN_1.tmp
   IJKA-Container name    op=1,0        ... sp._IJKA_3.tmp
   IJAB-Container name    op=1,0        ... sp._IJAB_3.tmp
   IJKA-Container name    op=1,1        ... sp._IJKA_1.tmp
   IJAB-Container name    op=1,1        ... sp._IJAB_1.tmp

Starting integral transformations       ... done
Completed Coulomb integral formation in   0.0 sec


-------------------------
SHARK HALF TRANSFORMATION (Exchange order)
-------------------------

Number of basis functions                   ...     18
Number of operators                         ...      2
   Operator  0:    0-   0 (p-index in (p*|q*))
   Operator  0:    0-  17 (q-index in (p*|q*)
   Operator  1:    0-   0 (p-index in (p*|q*))
   Operator  1:    0-  17 (q-index in (p*|q*)
Integral generator used                     ... SHARK
Contraction scheme used                     ... SEGMENTED CONTRACTION
MaxCore in resort                           ...   9000 MB

Half transformed integrals for op=   0      ... sp.SHARK_MNPQ0.tmp
Resorted half transformed integrals         ... sp._PMQN_0.tmp
Half transformed integrals for op=   1      ... sp.SHARK_MNPQ1.tmp
Resorted half transformed integrals         ... sp._PMQN_1.tmp
Half transformed integrals for op=0/1       ... sp.SHARK_MNPQ01.tmp
Resorted half transformed integrals         ... sp._PMQN_2.tmp
Half transformed integrals for op=1/0       ... sp.SHARK_MNPQ10.tmp
Resorted half transformed integrals         ... sp._PMQN_3.tmp

Half trafo (segmented) done. Total time =  0.0 sec. integrals=  0.0 sec trafo=  0.0 sec

----------------------
SHARK INTEGRAL SORTING (Exchange)
----------------------

Input container                             ... sp.SHARK_MNPQ0.tmp
Output container                            ... sp._PMQN_0.tmp
Range of AO-indices                         ...    0 -   17
Range of bra indices i                      ...    0 -    0
Range of ket indices j                      ...    0 -   17
Symmetric i,j range                         ... NO
Number of (i,j) pairs generated             ...   18
Max Core memory in MB                       ...   9000

Available core memory in MB                 ...   8986.50
MB needed for one item                      ...      0.00
Fixed MB needed                             ...      0.00
Number of items                             ...        18
Number of batches                           ...         1
Items treated per batch                     ...        18
Batch   0                                   ...      0-    17 (    18)
   => Closing output file and leaving

----------------------
SHARK INTEGRAL SORTING (Exchange)
----------------------

Input container                             ... sp.SHARK_MNPQ1.tmp
Output container                            ... sp._PMQN_1.tmp
Range of AO-indices                         ...    0 -   17
Range of bra indices i                      ...    0 -    0
Range of ket indices j                      ...    0 -   17
Symmetric i,j range                         ... NO
Number of (i,j) pairs generated             ...   18
Max Core memory in MB                       ...   9000

Available core memory in MB                 ...   8986.50
MB needed for one item                      ...      0.00
Fixed MB needed                             ...      0.00
Number of items                             ...        18
Number of batches                           ...         1
Items treated per batch                     ...        18
Batch   0                                   ...      0-    17 (    18)
   => Closing output file and leaving

----------------------
SHARK INTEGRAL SORTING (Exchange)
----------------------

Input container                             ... sp.SHARK_MNPQ01.tmp
Output container                            ... sp._PMQN_2.tmp
Range of AO-indices                         ...    0 -   17
Range of bra indices i                      ...    0 -    0
Range of ket indices j                      ...    0 -   17
Symmetric i,j range                         ... NO
Number of (i,j) pairs generated             ...   18
Max Core memory in MB                       ...   9000

Available core memory in MB                 ...   8986.51
MB needed for one item                      ...      0.00
Fixed MB needed                             ...      0.00
Number of items                             ...        18
Number of batches                           ...         1
Items treated per batch                     ...        18
Batch   0                                   ...      0-    17 (    18)
   => Closing output file and leaving

----------------------
SHARK INTEGRAL SORTING (Exchange)
----------------------

Input container                             ... sp.SHARK_MNPQ10.tmp
Output container                            ... sp._PMQN_3.tmp
Range of AO-indices                         ...    0 -   17
Range of bra indices i                      ...    0 -    0
Range of ket indices j                      ...    0 -   17
Symmetric i,j range                         ... NO
Number of (i,j) pairs generated             ...   18
Max Core memory in MB                       ...   9000

Available core memory in MB                 ...   8986.51
MB needed for one item                      ...      0.00
Fixed MB needed                             ...      0.00
Number of items                             ...        18
Number of batches                           ...         1
Items treated per batch                     ...        18
Batch   0                                   ...      0-    17 (    18)
   => Closing output file and leaving
done (  0.0 sec)

SHARK half integral transformation done. Total time =  0.0 sec.

----------------------------------
K-TRAFO SECOND HALF TRANSFORMATION
----------------------------------

Generate (ik|jl)                        ... YES
Generate (ik|ja)                        ... YES
Generate (ia|jb)                        ... YES
Generate (ib|ac)                        ... YES
Generate (ac|bd)                        ... NO
Generate (pr|qs)                        ... NO

Number of operators                     ... 2
   Operator 0                           ...    0-   0 to    1-  17
   Operator 1                           ...    0-   0 to    1-  17

Starting integral transformations       ... done
Completed Exchange integral formation in   0.0 sec


------------------------------
Initializing F12 data (SHARK)
------------------------------

Mapping basis set                  ... done
Dimension of the orbital basis set  = 18
Dimension of the CABS basis set     = 66
Dimension of the AUX basis set      = 60
Threshold for CABS orthogonalization = 1.000e-08
Test shows that OBS-bases are identical for ORCA and SHARK (good)
Test shows that CABS-bases are identical for ORCA and SHARK (good)
Will use an exponential correlation factor -Exp(-gamma r12)/gamma (gamma= 0.900) fit to 6 Gaussians 
Correlation factor:   
  NGauss  :          6      
  Gaussian expansion: 
    a( 0)=    0.1948458954898069  d( 0)=   -0.3837757042467722 
    a( 1)=    0.9387038354476187  d( 1)=   -0.3334018173527373 
    a( 2)=    3.4610351718196344  d( 2)=   -0.1753946778698117 
    a( 3)=   11.7049811259564009  d( 3)=   -0.1006409547412648 
    a( 4)=   44.2276114110074730  d( 4)=   -0.0614475918190023 
    a( 5)=  245.3721697105246733  d( 5)=   -0.0379425511812079 
Calculating one-electron matrices                       ... (SHARK)done (      0.0 sec)
Calculating pre-screening matrices:                     ... 
     (LIBINT-0)       .... 1/r12 done          (      0.0 sec)
     (LIBINT-1)       .... f12/r12 done        (      0.0 sec)
     (LIBINT-2)       .... f12 done            (      0.0 sec)
     (LIBINT-3)       .... f12^2 done          (      0.0 sec)
     (LIBINT-4)       .... [f12,[T1,f12]] done (      0.0 sec)
                                                        ... done (      0.1 sec)
Making CABS spaces                                      ... done (      0.0 sec)
Calculating 2-index 2-center F12 integrals              ... 
Two index explicit correlation integrals  op=0          ...(SHARK-0) done (      0.0 sec)  Metric   done (      0.0 sec)
Two index explicit correlation integrals  op=1          ...(SHARK-1) done (      0.0 sec)  Metric   done (      0.0 sec)
Two index explicit correlation integrals  op=2          ...(SHARK-2) done (      0.0 sec)  Metric   done (      0.0 sec)
Two index explicit correlation integrals  op=3          ...(SHARK-3) done (      0.0 sec)  Metric   done (      0.0 sec)
Two index explicit correlation integrals  op=4          ...(SHARK-4) done (      0.0 sec)  Metric   done (      0.0 sec)
                                                                     done (      0.0 sec)

-----------------------
SPIN UNRESTRICTED GUESS
-----------------------

Spin-components of the MP2 energy:
EMP2(aa)=      0.000000000
EMP2(bb)=      0.000000000
EMP2(ab)=     -0.029584126

Initial guess performed in     0.002 sec
E(0)                                       ...     -1.132916351
E(MP2)                                     ...     -0.029584126
Initial E(tot)                             ...     -1.162500477
<T|T>                                      ...      0.009954387
Number of pairs included                   ... 1

------------------------------------------------
                  UHF COUPLED CLUSTER ITERATIONS
------------------------------------------------

Number of amplitudes to be optimized       ...          305

Iter       E(tot)           E(Corr)          Delta-E          Residual     Time      <S|S>**1/2
  0     -1.162500477     -0.029584126     -0.000000000      0.022146962    0.03      0.000000831
                           *** Turning on DIIS ***
  1     -1.167833205     -0.034916855     -0.005332728      0.009471522    0.01      0.003898808
  2     -1.170495560     -0.037579210     -0.002662355      0.001441686    0.01      0.006623403
  3     -1.170644649     -0.037728299     -0.000149089      0.000273621    0.00      0.007163602
  4     -1.170671023     -0.037754672     -0.000026374      0.000026534    0.00      0.007329088
  5     -1.170669703     -0.037753352      0.000001320      0.000005564    0.00      0.007355992
               --- The Coupled-Cluster iterations have converged ---
--------------------
CC F12/RI CORRECTION
--------------------

Doing density matrix                                    ... done (      0.0 sec)
Calculating Coulomb operators
       .... OBS/OBS done        (      0.0 sec, SHARK-SC)
       .... CABS/OBS done       (      0.1 sec, LIBINT  )
       .... CABS/CABS done      (      0.1 sec, LIBINT  )
Calculating Exchange operators
       .... OBS/OBS done        (      0.0 sec, LIBINT  )
       .... CABS/OBS done       (      0.0 sec, LIBINT  )
       .... CABS/CABS done      (      0.0 sec, LIBINT  )
       .... exchange build done (      0.1 sec)
Completing Fock operators                               ... done (      0.0 sec)
Entering three index integral routine
Three index transformation (OBS,OBS/AUX) for  op=0      ... (SHARK ) done (      0.0 sec)
Three index transformation (OBS,CABS/AUX) for op=0      ... (LIBINT) done (      0.0 sec)
Three index transformation (OBS,OBS/AUX) for  op=1      ... (SHARK ) done (      0.0 sec)
Three index transformation (OBS,CABS/AUX) for op=1      ... (LIBINT) done (      0.0 sec)
Three index transformation (OBS,OBS/AUX) for  op=2      ... (SHARK ) done (      0.0 sec)
Three index transformation (OBS,CABS/AUX) for op=2      ... (LIBINT) done (      0.0 sec)
Three index transformation (OBS,OBS/AUX) for  op=3      ... (SHARK ) done (      0.0 sec)
Three index transformation (OBS,CABS/AUX) for op=3      ... (LIBINT) done (      0.0 sec)
Three index transformation (OBS,OBS/AUX) for  op=4      ... (SHARK ) done (      0.0 sec)
Three index transformation (OBS,CABS/AUX) for op=4      ... (LIBINT) done (      0.0 sec)
Three index transformation (OBS_F,OBS/AUX) for  op=2    ... (LIBINT) done (      0.0 sec)
Three index transformation (OBS_F,CABS/AUX) for op=2    ... (SHARK ) done (      0.0 sec)
Recalculating the K(C) operators (Opt=   AOX)           ... done (      0.0 sec)
Calculating F12 intermediates (incore)                  ... done (      0.0 sec)
     Startup integrals           ...     0.000 sec
     OBS/OBS integrals           ...     0.000 sec
     CABS/OBS integrals          ...     0.000 sec
     CABS/CABS integrals         ...     0.000 sec
     Vij intermediate            ...     0.000 sec
     Xij intermediate            ...     0.000 sec
     Bij intermediate            ...     0.000 sec
     BS-tilde ij intermediate    ...     0.000 sec
     Vbar-ij intermediate        ...     0.000 sec
     Hartree-Fock correction     ...     0.000 sec
Calculating correlation correction                      ... done (    0.000 sec)

F12 correction                   :  -0.002404208391
Hartree-Fock correction          :  -0.000269652746
Sum of the two                   :  -0.002673861137
Total time for F12 correction    :     0.406 sec
  .... cleaning up and leaving CC-F12/RI

----------------------
COUPLED CLUSTER ENERGY
----------------------

Uncorrected 0th order energy               ...     -1.132916351
F12-HF basis set correction                ...     -0.000269653
Corrected 0th order energy                 ...     -1.133186003

Uncorrected correlation energy             ...     -0.037753352
F12-correction to the correlation energy   ...     -0.002404208
Final F12 correlation energy               ...     -0.040157561

E(TOT)-before F12 corrections              ...     -1.170669703
E(TOT)-after HF correction                 ...     -1.170939356
E(TOT)-after all F12 corrections           ...     -1.173343564

Singles norm <S|S>**1/2                    ...      0.007355992 ( 0.003677996, 0.003677996)  
T1 diagnostic                              ...      0.005201472                              

------------------
LARGEST AMPLITUDES
------------------
   0a->  5a   0b->  5b       0.049608
   0a->  5a   0b->  1b       0.041255
   0a->  1a   0b->  5b       0.041255
   0a->  4a   0b->  4b       0.040339
   0a->  3a   0b->  3b       0.040339
   0a->  2a   0b->  2b       0.039326
   0a->  1a   0b->  1b       0.037107
   0a->  5a   0b->  9b       0.026088
   0a->  9a   0b->  5b       0.026088
   0a->  2a   0b-> 10b       0.020261
   0a-> 10a   0b->  2b       0.020261
   0a-> 10a   0b-> 10b       0.019573
   0a->  9a   0b->  1b       0.019507
   0a->  1a   0b->  9b       0.019507
   0a->  9a   0b->  9b       0.017432
   0a-> 11a   0b->  3b       0.014446

----------------------
UHF TRIPLES CORRECTION (Algorithm 1)
----------------------

Multiplier for the singles contribution    ...      1.000000000

SPIN-CASE Alpha-Alpha-Alpha:

SPIN-CASE Beta-Beta-Beta:

SPIN-CASE Alpha-Alpha-Beta:

SPIN-CASE Beta-Beta-Alpha:

Triples Correction (T)                     ...      0.000000000
Final correlation energy (without F12)     ...     -0.037753352
Final correlation energy (with F12)        ...     -0.040157561
Final correlation energy (CCSD scaled (T)) ...     -0.040157561
F12-E(CCSD)                                ...     -1.173343564
F12-E(CCSD(T))                             ...     -1.173343564
F12-ECCSD(T) with (T) scaled through CCSD  ...     -1.173343564



        !!!!!!!!!!!!!!!!!!!!!!!!!!!!!!!!!!!!!!!!!!!!!!!!!!!!!!!!!!!!!!!!!!!!!!!!!! 
        !  Warning: Densities are linearized densities                           !
        !!!!!!!!!!!!!!!!!!!!!!!!!!!!!!!!!!!!!!!!!!!!!!!!!!!!!!!!!!!!!!!!!!!!!!!!!! 

NORM  =      1.018330748 sqrt=     1.009123752
W(HF) =      0.981999220
------------------------------------------------------------------------------
                           ORCA POPULATION ANALYSIS
------------------------------------------------------------------------------
Input electron density              ... sp.mdcip
Input spin density                  ... sp.mdcir
BaseName (.gbw .S,...)              ... sp

                    ********************************
                    * MULLIKEN POPULATION ANALYSIS *
                    ********************************

------------------------------------------
MULLIKEN ATOMIC CHARGES AND SPIN DENSITIES
------------------------------------------
   0 H :   -0.000000    0.000000
   1 H :    0.000000   -0.000000
Sum of atomic charges       :    0.0000000
Sum of atomic spin densities:    0.0000000

---------------------------------------------------
MULLIKEN REDUCED ORBITAL CHARGES AND SPIN DENSITIES
---------------------------------------------------
CHARGE
  0 H s       :     0.983205  s :     0.983205
      pz      :     0.012122  p :     0.016795
      px      :     0.002336
      py      :     0.002336
  1 H s       :     0.983205  s :     0.983205
      pz      :     0.012122  p :     0.016795
      px      :     0.002336
      py      :     0.002336

SPIN
  0 H s       :    -0.000000  s :    -0.000000
      pz      :     0.000000  p :     0.000000
      px      :     0.000000
      py      :    -0.000000
  1 H s       :    -0.000000  s :    -0.000000
      pz      :     0.000000  p :     0.000000
      px      :    -0.000000
      py      :     0.000000


                     *******************************
                     * LOEWDIN POPULATION ANALYSIS *
                     *******************************

-----------------------------------------
LOEWDIN ATOMIC CHARGES AND SPIN DENSITIES
-----------------------------------------
   0 H :   -0.000000    0.000000
   1 H :    0.000000   -0.000000

--------------------------------------------------
LOEWDIN REDUCED ORBITAL CHARGES AND SPIN DENSITIES
--------------------------------------------------
CHARGE
  0 H s       :     0.945239  s :     0.945239
      pz      :     0.050089  p :     0.054761
      px      :     0.002336
      py      :     0.002336
  1 H s       :     0.945239  s :     0.945239
      pz      :     0.050089  p :     0.054761
      px      :     0.002336
      py      :     0.002336

SPIN
  0 H s       :     0.000000  s :     0.000000
      pz      :     0.000000  p :     0.000000
      px      :     0.000000
      py      :    -0.000000
  1 H s       :    -0.000000  s :    -0.000000
      pz      :     0.000000  p :     0.000000
      px      :    -0.000000
      py      :     0.000000


                      *****************************
                      * MAYER POPULATION ANALYSIS *
                      *****************************

  NA   - Mulliken gross atomic population
  ZA   - Total nuclear charge
  QA   - Mulliken gross atomic charge
  VA   - Mayer's total valence
  BVA  - Mayer's bonded valence
  FA   - Mayer's free valence

  ATOM       NA         ZA         QA         VA         BVA        FA
  0 H      1.0000     1.0000    -0.0000     1.0122     0.9402     0.0720
  1 H      1.0000     1.0000     0.0000     1.0122     0.9402     0.0720

  Mayer bond orders larger than 0.100000
B(  0-H ,  1-H ) :   0.9402 



--------------------------------------------------------------------------------
                                    TIMINGS
--------------------------------------------------------------------------------


Total execution time                   ...        1.128 sec

Fock Matrix Formation                  ...        0.048 sec (  4.2%)
Initial Guess                          ...        0.002 sec (  0.2%)
DIIS Solver                            ...        0.000 sec (  0.0%)
State Vector Update                    ...        0.000 sec (  0.0%)
Sigma-vector construction              ...        0.050 sec (  4.4%)
  <0|H|D>                              ...        0.001 sec (  2.1% of sigma)
  <D|H|D>(4-ext)                       ...        0.017 sec ( 34.3% of sigma)
  Fock-dressing                        ...        0.022 sec ( 45.2% of sigma)
  (ik|jl)-dressing                     ...        0.001 sec (  2.5% of sigma)
  (ij|ab),(ia|jb)-dressing             ...        0.004 sec (  7.5% of sigma)
Total Time for computing (T)           ...        0.000 sec (  0.0% of ALL)


Maximum memory used throughout the entire MDCI-calculation: 17.7 MB

-------------------------   --------------------
FINAL SINGLE POINT ENERGY        -1.173343564069
-------------------------   --------------------


------------------------------------------------------------------------------
                              ORCA PROPERTY CALCULATIONS
------------------------------------------------------------------------------

GBWName                                 ... sp.gbw
Number of atoms                         ...      2
Number of basis functions               ...     18
Max core memory                         ...   9000 MB

Electric properties:
Dipole moment                           ... YES
Quadrupole moment                       ...  NO
Static polarizability (Dipole/Dipole)   ...  NO
Static polarizability (Dipole/Quad.)    ...  NO
Static polarizability (Quad./Quad.)     ...  NO
Static polarizability (Velocity)        ...  NO
Static hyperpolarizability              ...  NO

Atomic electric properties:
Dipole moment                           ...  NO
Quadrupole moment                       ...  NO
Static polarizability                   ...  NO

Choice of electric origin               ... Center of mass
Position of electric origin             ...     0.000000     0.000000     0.699199

General magnetic properties:
Magnetizability                         ...  NO

EPR properties:
g-Tensor (aka g-matrix)                 ...  NO
Zero-Field splitting spin-orbit         ...  NO
Zero-field splitting spin-spin          ...  NO
Hyperfine couplings                     ...  NO (   0 nuclei)
Quadrupole couplings                    ...  NO (   0 nuclei)
Contact density                         ...  NO (   0 nuclei)

NMR properties:
Chemical shifts                         ...  NO (   0 nuclei)
Spin-rotation constants                 ...  NO (   0 nuclei)
Spin-spin couplings                     ...  NO (   0 nuclei,    0 pairs)

Choice of magnetic origin               ... GIAO
Position of magnetic origin             ...     0.000000     0.000000     0.000000

Properties with geometric perturbations:
SCF Hessian                             ...  NO
IR spectrum                             ...  NO
VCD spectrum                            ...  NO
X-ray spectroscopy properties:
SCF XES/XAS/RIXS spectra                ...  NO

SCF SOC stabilization energy            ...  NO
Diagonal Born-Oppenheimer correction    ...  NO

-------------
DIPOLE MOMENT
-------------

Method             : SCF
Type of density    : Electron Density
Multiplicity       :   1
Irrep              :   0
Energy             :    -1.1329163506200131 Eh
Basis              : AO
                                X                 Y                 Z
Electronic contribution:     -0.000000000      -0.000000000      -0.000000000
Nuclear contribution   :      0.000000000       0.000000000       0.000000000
                        -----------------------------------------
Total Dipole Moment    :     -0.000000000      -0.000000000      -0.000000000
                        -----------------------------------------
Magnitude (a.u.)       :      0.000000000
Magnitude (Debye)      :      0.000000000



--------------------
Rotational spectrum 
--------------------
 
Rotational constants in cm-1:             0.000000            60.805050            60.805050 
Rotational constants in MHz :             0.000000       1822889.538831       1822889.538831 

Dipole components along the rotational axes: 
x,y,z [a.u.] :    -0.000000    -0.000000    -0.000000 
x,y,z [Debye]:    -0.000000    -0.000000    -0.000000 

 

-------------
DIPOLE MOMENT
-------------

Method             : MDCI(SD)
Type of density    : Electron Density
Multiplicity       :   1
Level              : Linearized density
Irrep              :   0
Energy             :     0.0000000000000000 Eh
Basis              : AO
                                X                 Y                 Z
Electronic contribution:     -0.000000000      -0.000000000      -0.000000000
Nuclear contribution   :      0.000000000       0.000000000       0.000000000
                        -----------------------------------------
Total Dipole Moment    :     -0.000000000      -0.000000000      -0.000000000
                        -----------------------------------------
Magnitude (a.u.)       :      0.000000000
Magnitude (Debye)      :      0.000000000



--------------------
Rotational spectrum 
--------------------
 
Rotational constants in cm-1:             0.000000            60.805050            60.805050 
Rotational constants in MHz :             0.000000       1822889.538831       1822889.538831 

Dipole components along the rotational axes: 
x,y,z [a.u.] :    -0.000000    -0.000000    -0.000000 
x,y,z [Debye]:    -0.000000    -0.000000    -0.000000 

 

Dipole moment calculation done in   0.0 sec 

Maximum memory used throughout the entire PROP-calculation: 2.0 MB

--------------------------------
SUGGESTED CITATIONS FOR THIS RUN
--------------------------------

Below you find a list of papers that are relevant to this ORCA run
We neither can nor want to force you to cite these papers, but we appreciate if you do
You receive ORCA, which is the product of decades of hard work by many enthusiastic individuals, for free
The only thing we kindly ask in return is that you cite our papers,
We deeply appreciate it, if you show your appreciation for ORCA by not just citing the generic ORCA reference.

Please note that relegating all ORCA citations to the supporting information does *not* help us.
SI sections are not indexed - citations you put there will not count into any citation statistics
But we need these citations in order to attract the funding resources that allow us to do what we are doing

Therefore, if you are a happy ORCA user, please consider citing a few of the papers listed below in the main body of your paper

In addition to the list printed below, the program has created the file sp.bibtex that contains the list in bibtex format
You can import this file easily into all common literature databanks and citation aid programs

It goes without saying that in many instances, there are alternative algorithms to achieve similar
results as the ones you have gotten from ORCA. It is, of course, also the case that in some instances
ORCA just re-implements algorithms worked out by others. We are fully aware of that and we are also
fully appreciative of our colleagues work. Hence this citation list should not be read as indicating
that the listed papers, which are focused on our own work, are the only ones worth citing. It simply
meant to make it easier for users to cite ORCA specific papers. It is not a substitute for doing your
own literature research and citing the relevant literature in a scientifically appropriate manner.

List of essential papers. We consider these as the minimum necessary citations

  1. Neese, F.
     Software update: the ORCA program system, version 6.0
     WIRES Comput. Molec. Sci. 2025 15(1), e70019
     doi.org/10.1002/wcms.70019

List of papers to cite with high priority. The work reported in these papers was absolutely
necessary for this run to complete.
Our perspective: the developers of density functionals and basis sets usually get cited in chemistry papers
Good! But without the algorithms to do something with them, the functionals or basis sets would not do anything.
Hence, in our opinion, the algorithm design and method developments papers are equally worthy of getting cited

  1. Pavosevic, F.; Neese, F.; Valeev, E.F.
     Geminal-spanning orbitals make explicitly correlated reduced-scaling coupled-cluster methods robust, yet simple
     J. Chem. Phys. 2014 141 , 
     doi.org/10.1063/1.4890002
  2. Neese, F.
     The SHARK Integral Generation and Digestion System
     J. Comp. Chem. 2022 44(3), 381
     doi.org/10.1002/jcc.26942

List of suggested additional citations. These are papers that are important in the 'surrounding' of 
of this run, or papers that preceded the highly important papers. If you like your results we are grateful for a citation.

  1. Neese, F.
     The ORCA program system
     WIRES Comput. Molec. Sci. 2012 2(1), 73-78
     doi.org/10.1002/wcms.81
  2. Neese, F.
     Software update: the ORCA program system, version 4.0
     WIRES Comput. Molec. Sci. 2018 8(1), 1-6
     doi.org/10.1002/wcms.1327
  3. Neese, F.; Wennmohs, F.; Becker, U.; Riplinger, C.
     The ORCA quantum chemistry program package
     J. Chem. Phys. 2020 152(22), 224108
     doi.org/10.1063/5.0004608
  4. Neese, F.
     Software update: The ORCA program system—Version 5.0
     WIRES Comput. Molec. Sci. 2022 12(1), e1606
     doi.org/10.1002/wcms.1606

List of optional additional citations

  1. Neese, F.
     Approximate second-order SCF convergence for spin unrestricted wavefunctions
     Chem. Phys. Lett. 2000 325(1-3), 93-98
     doi.org/10.1016/s0009-2614(00)00662-x

Timings for individual modules:

Sum of individual times          ...        2.077 sec (=   0.035 min)
Startup calculation              ...        0.238 sec (=   0.004 min)  11.5 %
SCF iterations                   ...        0.228 sec (=   0.004 min)  11.0 %
Property integrals               ...        0.075 sec (=   0.001 min)   3.6 %
Property calculations            ...        0.210 sec (=   0.004 min)  10.1 %
MDCI module                      ...        1.325 sec (=   0.022 min)  63.8 %
                             ****ORCA TERMINATED NORMALLY****
TOTAL RUN TIME: 0 days 0 hours 0 minutes 2 seconds 222 msec
