
                                 *****************
                                 * O   R   C   A *
                                 *****************

                                            #,                                       
                                            ###                                      
                                            ####                                     
                                            #####                                    
                                            ######                                   
                                           ########,                                 
                                     ,,################,,,,,                         
                               ,,#################################,,                 
                          ,,##########################################,,             
                       ,#########################################, ''#####,          
                    ,#############################################,,   '####,        
                  ,##################################################,,,,####,       
                ,###########''''           ''''###############################       
              ,#####''   ,,,,##########,,,,          '''####'''          '####       
            ,##' ,,,,###########################,,,                        '##       
           ' ,,###''''                  '''############,,,                           
         ,,##''                                '''############,,,,        ,,,,,,###''
      ,#''                                            '''#######################'''  
     '                                                          ''''####''''         
             ,#######,   #######,   ,#######,      ##                                
            ,#'     '#,  ##    ##  ,#'     '#,    #''#        ,####,    ,#,          
            ##       ##  ##   ,#'  ##            #'  '#       #'       ,# #          
            ##       ##  #######   ##           ,######,      #####,      #          
            '#,     ,#'  ##    ##  '#,     ,#' ,#      #,     #,   #      #          
             '#######'   ##     ##  '#######'  #'      '#     '####' #    #          



                #########################################################
                #                        -***-                          #
                #          Department of theory and spectroscopy        #
                #                                                       #
                #                      Frank Neese                      #
                #                                                       #
                #     Directorship, Architecture, Infrastructure        #
                #                    SHARK, DRIVERS                     #
                #        Core code/Algorithms in most modules           #
                #                                                       #
                #        Max Planck Institute fuer Kohlenforschung      #
                #                Kaiser Wilhelm Platz 1                 #
                #                 D-45470 Muelheim/Ruhr                 #
                #                      Germany                          #
                #                                                       #
                #                  All rights reserved                  #
                #                        -***-                          #
                #########################################################


                         Program Version 6.1.1  -  RELEASE   -
                                (GIT: $487d211c$)
                          ($2025-11-21 10:33:24 +0100$)


 With contributions from (in alphabetic order):
[Max-Planck-Institut fuer Kohlenforschung]                               
  Daniel Aravena         : Magnetic Suceptibility                        
  Michael Atanasov       : Ab Initio Ligand Field Theory (pilot matlab implementation)
  Alexander A. Auer      : GIAO ZORA, VPT2 properties, NMR spectrum      
  Ute Becker             : All parallelization in ORCA, NUMFREQ, NUMCALC 
  Giovanni Bistoni       : ED, misc. LED, open-shell LED, HFLD           
  Dmytro Bykov           : pre 5.0 version of the SCF Hessian            
  Marcos Casanova-Páez   : Triplet and SCS-CIS(D). UHF-(DLPNO)-IP/EA/STEOM-CCSD. UHF-CVS-IP/STEOM-CCSD   
  Vijay G. Chilkuri      : MRCI spin determinant printing, contributions to CSF-ICE 
  Pauline Colinet        : FMM embedding                                 
  Dipayan Datta          : RHF DLPNO-CCSD density                        
  Achintya Kumar Dutta   : EOM-CC, STEOM-CC                              
  Nicolas Foglia         : Exact transition moments, OPA infrastructure, MCD improvements    
  Dmitry Ganyushin       : Spin-Orbit,Spin-Spin,Magnetic field MRCI      
  Miquel Garcia-Rates    : C-PCM and meta-GGA Hessian, CCSD/C-PCM, Gaussian charge scheme 
  Tiago L. C. Gouveia    : GS-ROHF, GS-ROCIS                             
  Yang Guo               : DLPNO-NEVPT2, F12-NEVPT2, CIM, IAO-localization        
  Andreas Hansen         : Spin unrestricted coupled pair/coupled cluster methods 
  Ingolf Harden          : AUTO-CI MPn and infrastructure                
  Benjamin Helmich-Paris : MC-RPA, TRAH-(SCF,CASSCF), AVAS, COSX integrals, SCF dyn. polar., MC-PDFT, srDFT 
  Lee Huntington         : MR-EOM, pCC                                   
  Robert Izsak           : Overlap fitted RIJCOSX, COSX-SCS-MP3, EOM     
  Riya Kayal             : Wick's Theorem for AUTO-CI, AUTO-CI UHF-CCSDT 
  Emily Kempfer          : AUTO-CI RHF CISDT and CCSDT, approximate NEVPT4
  Christian Kollmar      : KDIIS, OOCD, Brueckner-CCSD(T), CCSD density, CASPT2, CASPT2-K, improved NEVPT2 
  Axel Koslowski         : Symmetry handling                             
  Simone Kossmann        : meta-GGA functionals, TD-DFT gradient, OOMP2, (MP2 Hessian; deprecated post 5.0) 
  Lucas Lang             : DCDCAS, Hyperfine gauge corrections, ICE-SOC+SSC
  Marvin Lechner         : AUTO-CI (C++ implementation), FIC-MRCC        
  Spencer Leger          : CASSCF response                               
  Dagmar Lenk            : GEPOL surface, SMD, ORCA-2-JSON               
  Dimitrios Liakos       : Extrapolation schemes; Compound Job, Property file
  Dimitrios Manganas     : Further ROCIS development; embedding schemes. LFT, Crystal Embedding 
  Dimitrios Pantazis     : SARC Basis sets                               
  Anastasios Papadopoulos: AUTO-CI, single reference methods and gradients 
  Taras Petrenko         : pre 6.0 DFT Hessian and TD-DFT gradient,  ECA, NRVS 
  Petra Pikulova         : Analytic Raman intensities                    
  Peter Pinski           : DLPNO-MP2, DLPNO-MP2 Gradient                 
  Shashank Vittal Rao    : ES-AILFT, MagRelax                            
  Christoph Reimann      : Effective Core Potentials                     
  Marius Retegan         : Local ZFS, SOC                                
  Christoph Riplinger    : Optimizer, TS searches, QM/MM, DLPNO-CCSD(T), (RO)-DLPNO pert. Triples 
  Michael Roemelt        : Original ROCIS implementation, recursive CI coupling coefficients
  Masaaki Saitow         : Open-shell DLPNO-CCSD energy and density      
  Barbara Sandhoefer     : DKH picture change effects                    
  Yorick L. A. Schmerwitz: GMF and freeze-and-release deltaSCF, NEB S-IDPP initial path                    
  Kantharuban Sivalingam : CASSCF convergence/infrastructure, NEVPT2, NEVPT3, NEVPT4(SD), FIC-MRCI and CEPA variants
  Bernardo de Souza      : ESD, SOC TD-DFT                               
  Georgi L. Stoychev     : AutoAux, RI-MP2 NMR, DLPNO-MP2 response, X2C  
  Van Anh Tran           : RI-MP2 g-tensors                              
  Willem Van den Heuvel  : Paramagnetic NMR                              
  Zikuan Wang            : NOTCH, Electric field optimization            
  Frank Wennmohs         : Technical directorship and infrastructure     
  Hang Xu                : AUTO-CI-Response properties                   
                                                                         
[FACCTs GmbH]                                                            
  Markus Bursch, Nicolas Foglia, Miquel Garcia-Rates, Ingolf Harden, Hagen Neugebauer, Anastasios Papadopoulos, 
  Christoph Riplinger, Bernardo de Souza, Georgi L. Stoychev                                                    
                                                                 
  APM, various basis sets, CI-OPT, improved COSX, DLPNO-Multilevel,           
  DOCKER, DRACO, updates on ESD, Fragmentator, GOAT, IRC, LR-CPCM, L-BFGS, MBIS, meta-GGA TD-DFT gradient, ML-optimized integration grids, 
  MM, NACMEs, nearIR, NEB, NEB-TS, NL-DFT gradient (VV10), 2- and 3-layer-ONIOM, interface openCOSMO-RS, QMMM,   
  Crystal-QMMM, RESP, rigid body optimization, SF, symmetry and pop. for TD-DFT, various functionals, SOLVATOR                                   
                                                                         
[Other institutions]                                                     
  V. Asgeirsson          : NEB                                           
  Christoph Bannwarth    : sTDA-DFT, sTD-DFT, PBEh-3c, B97-3c, D3        
  Giovanni Bistoni       : ETS/NOCV, ADLD/ADEX, COVALED                  
  Martin Brehm           : Molecular dynamics                            
  Ronald Cardenas        : ETS/NOCV                                      
  Martina Colucci        : COVALED                                       
  Sebastian Ehlert       : rSCAN, r2SCAN, r2SCAN-3c, D4, dhf basis sets  
  Marvin Friede          : D4 for Fr, Ra, Ac-Lr                          
  Lars Goerigk           : TD-DFT with DH, B97 family of functionals     
  Stefan Grimme          : VdW corrections, initial TS optimization, DFT functionals, gCP, sTDA/sTD-DF 
  Waldemar Hujo          : DFT-NL                                        
  H. Jonsson             : NEB                                           
  Holger Kruse           : gCP                                           
  Marcel Mueller         : wB97X-3c, vDZP basis set                      
  Hagen Neugebauer       : wr2SCAN, Native XTB                           
  Gianluca Regni         : ADLD/ADEX                                     
  Tobias Risthaus        : pre 6.0 range-separated hybrid DFT and stability analysis
  Lukas Wittmann         : regularized MP2, r2SCAN double-hybrids, wr2SCAN        
                                                                         
We gratefully acknowledge several colleagues who have allowed us to      
interface, adapt or use parts of their codes:                            
  Ed Valeev, F. Pavosevic, A. Kumar             : LibInt (2-el integral package), F12 methods 
  Garnet Chan, S. Sharma, J. Yang, R. Olivares  : DMRG                   
  Ulf Ekstrom                                   : XCFun DFT Library      
  Mihaly Kallay                                 : mrcc  (arbitrary order and MRCC methods)
  Frank Weinhold                                : gennbo (NPA and NBO analysis)           
  Simon Mueller                                 : openCOSMO-RS                            
  Christopher J. Cramer and Donald G. Truhlar   : smd solvation model                     
  S Lehtola, MJT Oliveira, MAL Marques          : LibXC Library                           
  Liviu Ungur et al                             : ANISO software                          


 Your calculation uses the libint2 library for the computation of 2-el integrals
 For citations please refer to: http://libint.valeyev.net

 Your ORCA version has been built with support for libXC version: 7.0.0
 For citations please refer to: https://libxc.gitlab.io

 This ORCA versions uses:
   CBLAS   interface :  Fast vector & matrix operations
   LAPACKE interface :  Fast linear algebra routines
   SCALAPACK package :  Parallel linear algebra routines
   Shared memory     :  Shared parallel matrices
   BLAS/LAPACK       :  OpenBLAS 0.3.29  USE64BITINT DYNAMIC_ARCH NO_AFFINITY Zen SINGLE_THREADED
        Core in use  :  Zen
   Copyright (c) 2011-2014, The OpenBLAS Project


  ***********************************
  * Starting time: Tue Mar 10 14:49:45 2026
  * Host name:     a2-5
  * Process ID:    4165384
  * Working dir.:  /tmp/lscratch/avcopan/43464439
  ***********************************

NOTE: MaxCore=6000 MB was set to SCF,MP2,MDCI,CIPSI,MRCI,RASCI and CIS
      => If you want to overwrite this, your respective input block should be placed after the MaxCore statement


***************************************
The coordinates will be read from file: guess.xyz
***************************************


Your calculation utilizes the atom-pairwise dispersion correction
based on EEQ partial charges (D4)


Warning: RI is on but no J-basis has been assigned. Assigning Def2/J (nothing to worry about!)
================================================================================

----- Orbital basis set information -----
Your calculation utilizes the basis: def2-TZVPP
   F. Weigend and R. Ahlrichs, Phys. Chem. Chem. Phys. 7, 3297 (2005).

----- AuxJ basis set information -----
Your calculation utilizes the auxiliary basis: def2/J
   H-Rn: F. Weigend, Phys. Chem. Chem. Phys. 8, 1057 (2006).
   Fr-Lr: K. Eichkorn, F. Weigend, O. Treutler, R. Ahlrichs; Theor. Chem. Acc. 97, 119 (1997).

----- AuxC basis set information -----
Your calculation utilizes the auxiliary basis: def2-TZVPP/C
  H-La, Hf-Rn : A. Hellweg, C. Hattig, S. Hofener and W. Klopper, Theor. Chem. Acc. 117, 587 (2007).
        Ce-Lu : J. Chmela and M. E. Harding, Mol. Phys. (2018).

================================================================================
                                        WARNINGS
                       Please study these warnings very carefully!
================================================================================


WARNING: your system is open-shell and RHF/RKS was chosen
  ===> : WILL SWITCH to UHF/UKS


WARNING: The frozen-core approximation for MP2-gradient calculations is turned on by default.

WARNING: The environment variable RSH_COMMAND is not set!
  ===> : All Displacements for the Numerical Hessian or Gradient calculation
         will be started on localhost

WARNING: Geometry Optimization
  ===> : Switching off AutoStart
         For restart on a previous wavefunction, please use MOREAD

WARNING: The frozen-core approximation is turned on by default for 
         the MP2 part of double-hybrid DFT.

================================================================================
                                       INPUT FILE
================================================================================
NAME = opt.inp
|  1> % MaxCore 6000
|  2> ! PAL8
|  3> ! REVDSD-PBEP86-D4/2021 def2-TZVPP def2-TZVPP/c
|  4> ! VeryTightSCF DefGrid3
|  5> ! Opt
|  6> ! NumFreq
|  7> * xyzfile 0 2 guess.xyz
|  8> 
|  9>                          ****END OF INPUT****
================================================================================

                       *****************************
                       * Geometry Optimization Run *
                       *****************************

Geometry optimization settings:
Update method            Update   .... BFGS
Choice of coordinates    CoordSys .... (2022) Redundant Internals
Initial Hessian          InHess   .... Almloef's Model
Max. no of cycles        MaxIter  .... 50

Convergence Tolerances:
Energy Change            TolE     ....  5.0000e-06 Eh
Max. Gradient            TolMAXG  ....  3.0000e-04 Eh/bohr
RMS Gradient             TolRMSG  ....  1.0000e-04 Eh/bohr
Max. Displacement        TolMAXD  ....  4.0000e-03 bohr
RMS Displacement         TolRMSD  ....  2.0000e-03 bohr
Strict Convergence                .... False

------------------------------------------------------------------------------
                        ORCA OPTIMIZATION COORDINATE SETUP
------------------------------------------------------------------------------

The optimization will be done in redundant internal coordinates (2022)
Making redundant internal coordinates   ...  (2022 redundants) done
Evaluating the initial hessian          ...  (Almloef) done
Evaluating the coordinates              ...  done
Calculating the B-matrix                .... done
Calculating the G-matrix                .... done
The number of degrees of freedom        ....   74

    -----------------------------------------------------------------
                    Redundant Internal Coordinates


    -----------------------------------------------------------------
         Definition                    Initial Value    Approx d2E/dq
    -----------------------------------------------------------------
      1. B(C   1,C   0)                  1.5346         0.367366   
      2. B(C   2,C   1)                  1.5406         0.359336   
      3. B(C   3,C   2)                  1.4957         0.423675   
      4. B(C   4,C   3)                  1.4956         0.423821   
      5. B(C   4,C   0)                  1.5368         0.364356   
      6. B(H   5,C   0)                  1.0946         0.354103   
      7. B(H   6,C   0)                  1.0899         0.360205   
      8. B(H   7,C   1)                  1.0903         0.359675   
      9. B(H   8,C   1)                  1.0940         0.354837   
     10. B(H   9,C   2)                  1.0935         0.355469   
     11. B(H  10,C   2)                  1.1000         0.347091   
     12. B(H  11,C   3)                  1.0810         0.372151   
     13. B(H  12,C   4)                  1.0916         0.358041   
     14. B(O  13,C   4)                  1.4406         0.464687   
     15. B(H  14,O  13)                  0.9613         0.517409   
     16. A(C   1,C   0,H   6)          114.1353         0.323443   
     17. A(C   4,C   0,H   5)          108.9536         0.322104   
     18. A(C   1,C   0,C   4)          104.3611         0.360771   
     19. A(C   1,C   0,H   5)          109.4799         0.322538   
     20. A(H   5,C   0,H   6)          108.3685         0.290087   
     21. A(C   4,C   0,H   6)          111.4113         0.323007   
     22. A(C   2,C   1,H   8)          109.7406         0.321482   
     23. A(C   2,C   1,H   7)          113.1060         0.322196   
     24. A(C   0,C   1,H   7)          113.1434         0.323365   
     25. A(H   7,C   1,H   8)          107.4594         0.290114   
     26. A(C   0,C   1,C   2)          103.3137         0.359919   
     27. A(C   0,C   1,H   8)          110.0460         0.322648   
     28. A(C   1,C   2,C   3)          103.2340         0.368807   
     29. A(H   9,C   2,H  10)          106.2683         0.288580   
     30. A(C   1,C   2,H  10)          110.1152         0.320324   
     31. A(C   3,C   2,H   9)          113.2423         0.330410   
     32. A(C   1,C   2,H   9)          113.3663         0.321576   
     33. A(C   3,C   2,H  10)          110.6854         0.329110   
     34. A(C   4,C   3,H  11)          123.4424         0.332948   
     35. A(C   2,C   3,H  11)          124.8502         0.332929   
     36. A(C   2,C   3,C   4)          111.7053         0.379457   
     37. A(C   3,C   4,O  13)          112.2249         0.383155   
     38. A(C   0,C   4,O  13)          112.6090         0.373260   
     39. A(C   3,C   4,H  12)          113.2245         0.330823   
     40. A(C   0,C   4,H  12)          112.0328         0.322688   
     41. A(H  12,C   4,O  13)          104.0379         0.333882   
     42. A(C   0,C   4,C   3)          103.0109         0.369709   
     43. A(C   4,O  13,H  14)          107.3302         0.352062   
     44. D(C   2,C   1,C   0,H   6)   -160.4130         0.010798   
     45. D(C   2,C   1,C   0,H   5)     77.9342         0.010798   
     46. D(C   2,C   1,C   0,C   4)    -38.5660         0.010798   
     47. D(H   7,C   1,C   0,H   5)    -44.7300         0.010798   
     48. D(H   7,C   1,C   0,C   4)   -161.2302         0.010798   
     49. D(H   7,C   1,C   0,H   6)     76.9228         0.010798   
     50. D(H   9,C   2,C   1,C   0)    154.1515         0.010362   
     51. D(H   9,C   2,C   1,H   8)     36.8189         0.010362   
     52. D(H   9,C   2,C   1,H   7)    -83.1594         0.010362   
     53. D(C   3,C   2,C   1,C   0)     31.2491         0.010362   
     54. D(C   3,C   2,C   1,H   8)    -86.0834         0.010362   
     55. D(C   3,C   2,C   1,H   7)    153.9383         0.010362   
     56. D(C   4,C   3,C   2,H  10)    104.7991         0.013267   
     57. D(C   4,C   3,C   2,H   9)   -135.9886         0.013267   
     58. D(C   4,C   3,C   2,C   1)    -13.0039         0.013267   
     59. D(H  11,C   3,C   2,H   9)     44.5163         0.013267   
     60. D(H  11,C   3,C   2,C   1)    167.5011         0.013267   
     61. D(O  13,C   4,C   3,C   2)    110.8247         0.013275   
     62. D(H  12,C   4,C   3,C   2)   -131.7579         0.013275   
     63. D(C   0,C   4,C   3,H  11)    168.9521         0.013275   
     64. D(C   0,C   4,C   3,C   2)    -10.5513         0.013275   
     65. D(H  12,C   4,C   0,H   6)    -84.2770         0.010633   
     66. D(H  12,C   4,C   0,H   5)     35.2318         0.010633   
     67. D(H  12,C   4,C   0,C   1)    152.0971         0.010633   
     68. D(C   3,C   4,C   0,H   6)    153.7093         0.010633   
     69. D(H  12,C   4,C   3,H  11)     47.7455         0.013275   
     70. D(C   3,C   4,C   0,H   5)    -86.7819         0.010633   
     71. D(C   3,C   4,C   0,C   1)     30.0834         0.010633   
     72. D(H  14,O  13,C   4,H  12)   -160.5729         0.017015   
     73. D(H  14,O  13,C   4,C   3)    -37.8036         0.017015   
     74. D(H  14,O  13,C   4,C   0)     77.8933         0.017015   
    -----------------------------------------------------------------

Number of atoms                         .... 15
Number of degrees of freedom            .... 74


         *************************************************************
         *                GEOMETRY OPTIMIZATION CYCLE   1            *
         *************************************************************
---------------------------------
CARTESIAN COORDINATES (ANGSTROEM)
---------------------------------
  C     -0.122961    1.197506   -0.180667
  C     -0.812456    0.364423    0.908117
  C     -0.943614   -1.027166    0.260305
  C      0.251535   -1.101653   -0.635974
  C      0.899218    0.235648   -0.806557
  H     -0.856215    1.481711   -0.942017
  H      0.357448    2.103462    0.188627
  H     -1.769051    0.780798    1.224910
  H     -0.172735    0.301121    1.793330
  H     -0.988542   -1.841942    0.988257
  H     -1.872848   -1.085704   -0.325471
  H      0.609254   -2.002313   -1.115030
  H      1.108911    0.482532   -1.848949
  O      2.187588    0.302842   -0.165550
  H      2.124472   -0.191265    0.656668

----------------------------
CARTESIAN COORDINATES (A.U.)
----------------------------
  NO LB      ZA    FRAG     MASS         X           Y           Z
   0 C     6.0000    0    12.011   -0.232363    2.262958   -0.341412
   1 C     6.0000    0    12.011   -1.535319    0.688659    1.716092
   2 C     6.0000    0    12.011   -1.783173   -1.941062    0.491905
   3 C     6.0000    0    12.011    0.475332   -2.081822   -1.201817
   4 C     6.0000    0    12.011    1.699276    0.445310   -1.524172
   5 H     1.0000    0     1.008   -1.618011    2.800029   -1.780153
   6 H     1.0000    0     1.008    0.675479    3.974967    0.356454
   7 H     1.0000    0     1.008   -3.343022    1.475494    2.314744
   8 H     1.0000    0     1.008   -0.326422    0.569037    3.388903
   9 H     1.0000    0     1.008   -1.868074   -3.480767    1.867536
  10 H     1.0000    0     1.008   -3.539170   -2.051683   -0.615050
  11 H     1.0000    0     1.008    1.151323   -3.783822   -2.107102
  12 H     1.0000    0     1.008    2.095538    0.911853   -3.494008
  13 O     8.0000    0    15.999    4.133943    0.572288   -0.312845
  14 H     1.0000    0     1.008    4.014670   -0.361439    1.240923

--------------------------------
INTERNAL COORDINATES (ANGSTROEM)
--------------------------------
 C      0   0   0     0.000000000000     0.00000000     0.00000000
 C      1   0   0     1.534562328059     0.00000000     0.00000000
 C      2   1   0     1.540578393730   103.31371183     0.00000000
 C      3   2   1     1.495742695514   103.23399071    31.24913075
 C      4   3   2     1.495648588326   111.70534912   346.99612101
 H      1   2   3     1.094571363562   109.47994813    77.93419113
 H      1   2   3     1.089920988815   114.13529069   199.58701788
 H      2   1   3     1.090321201312   113.14344843   237.33580458
 H      2   1   3     1.094007709993   110.04599320   117.11775802
 H      3   2   1     1.093523755741   113.36634194   154.15145915
 H      3   2   1     1.100016111354   110.11523692   273.04738967
 H      4   3   2     1.081039201158   124.85024003   167.50106728
 H      5   4   3     1.091560726882   113.22445604   228.24208708
 O      5   4   3     1.440590856507   112.22490045   110.82470900
 H     14   5   4     0.961336528537   107.33019861   322.19637741

---------------------------
INTERNAL COORDINATES (A.U.)
---------------------------
 C      0   0   0     0.000000000000     0.00000000     0.00000000
 C      1   0   0     2.899902535463     0.00000000     0.00000000
 C      2   1   0     2.911271251986   103.31371183     0.00000000
 C      3   2   1     2.826544061335   103.23399071    31.24913075
 C      4   3   2     2.826366224522   111.70534912   346.99612101
 H      1   2   3     2.068440111164   109.47994813    77.93419113
 H      1   2   3     2.059652176472   114.13529069   199.58701788
 H      2   1   3     2.060408468487   113.14344843   237.33580458
 H      2   1   3     2.067374960286   110.04599320   117.11775802
 H      3   2   1     2.066460419288   113.36634194   154.15145915
 H      3   2   1     2.078729193360   110.11523692   273.04738967
 H      4   3   2     2.042868030222   124.85024003   167.50106728
 H      5   4   3     2.062750832351   113.22445604   228.24208708
 O      5   4   3     2.722322189830   112.22490045   110.82470900
 H     14   5   4     1.816662761469   107.33019861   322.19637741

---------------------
BASIS SET INFORMATION
---------------------
There are 3 groups of distinct atoms

 Group   1 Type C   : 11s6p2d1f contracted to 5s3p2d1f pattern {62111/411/11/1}
 Group   2 Type H   : 5s2p1d contracted to 3s2p1d pattern {311/11/1}
 Group   3 Type O   : 11s6p2d1f contracted to 5s3p2d1f pattern {62111/411/11/1}

Atom   0C    basis set group =>   1
Atom   1C    basis set group =>   1
Atom   2C    basis set group =>   1
Atom   3C    basis set group =>   1
Atom   4C    basis set group =>   1
Atom   5H    basis set group =>   2
Atom   6H    basis set group =>   2
Atom   7H    basis set group =>   2
Atom   8H    basis set group =>   2
Atom   9H    basis set group =>   2
Atom  10H    basis set group =>   2
Atom  11H    basis set group =>   2
Atom  12H    basis set group =>   2
Atom  13O    basis set group =>   3
Atom  14H    basis set group =>   2
---------------------------------
AUXILIARY/J BASIS SET INFORMATION
---------------------------------
There are 3 groups of distinct atoms

 Group   1 Type C   : 12s5p4d2f1g contracted to 6s4p3d1f1g pattern {711111/2111/211/2/1}
 Group   2 Type H   : 5s2p1d contracted to 3s1p1d pattern {311/2/1}
 Group   3 Type O   : 12s5p4d2f1g contracted to 6s4p3d1f1g pattern {711111/2111/211/2/1}

Atom   0C    basis set group =>   1
Atom   1C    basis set group =>   1
Atom   2C    basis set group =>   1
Atom   3C    basis set group =>   1
Atom   4C    basis set group =>   1
Atom   5H    basis set group =>   2
Atom   6H    basis set group =>   2
Atom   7H    basis set group =>   2
Atom   8H    basis set group =>   2
Atom   9H    basis set group =>   2
Atom  10H    basis set group =>   2
Atom  11H    basis set group =>   2
Atom  12H    basis set group =>   2
Atom  13O    basis set group =>   3
Atom  14H    basis set group =>   2
---------------------------------
AUXILIARY/C BASIS SET INFORMATION
---------------------------------
There are 3 groups of distinct atoms

 Group   1 Type C   : 8s6p5d3f1g contracted to 8s6p4d3f1g pattern {11111111/111111/2111/111/1}
 Group   2 Type H   : 4s3p2d1f contracted to 4s3p2d1f pattern {1111/111/11/1}
 Group   3 Type O   : 8s6p5d3f1g contracted to 8s6p4d3f1g pattern {11111111/111111/2111/111/1}

Atom   0C    basis set group =>   1
Atom   1C    basis set group =>   1
Atom   2C    basis set group =>   1
Atom   3C    basis set group =>   1
Atom   4C    basis set group =>   1
Atom   5H    basis set group =>   2
Atom   6H    basis set group =>   2
Atom   7H    basis set group =>   2
Atom   8H    basis set group =>   2
Atom   9H    basis set group =>   2
Atom  10H    basis set group =>   2
Atom  11H    basis set group =>   2
Atom  12H    basis set group =>   2
Atom  13O    basis set group =>   3
Atom  14H    basis set group =>   2


           ************************************************************
           *        Program running with 8 parallel MPI-processes     *
           *              working on a common directory               *
           ************************************************************
------------------------------------------------------------------------------
                             ORCA STARTUP CALCULATIONS
                           -- RI-GTO INTEGRALS CHOSEN --
------------------------------------------------------------------------------
------------------------------------------------------------------------------
                   ___                                                        
                  /   \      - P O W E R E D   B Y -                         
                 /     \                                                     
                 |  |  |   _    _      __       _____    __    __             
                 |  |  |  | |  | |    /  \     |  _  \  |  |  /  |          
                  \  \/   | |  | |   /    \    | | | |  |  | /  /          
                 / \  \   | |__| |  /  /\  \   | |_| |  |  |/  /          
                |  |  |   |  __  | /  /__\  \  |    /   |      \           
                |  |  |   | |  | | |   __   |  |    \   |  |\   \          
                \     /   | |  | | |  |  |  |  | |\  \  |  | \   \       
                 \___/    |_|  |_| |__|  |__|  |_| \__\ |__|  \__/        
                                                                              
                      - O R C A' S   B I G   F R I E N D -                    
                                      &                                       
                       - I N T E G R A L  F E E D E R -                       
                                                                              
 v1 FN, 2020, v2 2021, v3 2022-2024                                           
------------------------------------------------------------------------------


----------------------
SHARK INTEGRAL PACKAGE
----------------------

Number of atoms                             ...     15
Number of basis functions                   ...    312
Number of shells                            ...    120
Maximum angular momentum                    ...      3
Integral batch strategy                     ... SHARK/LIBINT Hybrid
RI-J (if used) integral strategy            ... SPLIT-RIJ (Revised 2003 algorithm where possible)
Printlevel                                  ...      1
Contraction scheme used                     ... SEGMENTED contraction
Prescreening option                         ... SCHWARTZ
   Thresh                                   ... 1.000e-12
   Tcut                                     ... 1.000e-14
   Tpresel                                  ... 1.000e-14 
Coulomb Range Separation                    ... NOT USED
Exchange Range Separation                   ... NOT USED
Multipole approximations                    ... NOT USED
Finite Nucleus Model                        ... NOT USED
CABS basis                                  ... NOT available
Auxiliary Coulomb fitting basis             ... AVAILABLE
   # of basis functions in Aux-J            ...    393
   # of shells in Aux-J                     ...    135
   Maximum angular momentum in Aux-J        ...      4
Auxiliary J/K fitting basis                 ... NOT available
Auxiliary Correlation fitting basis         ... AVAILABLE
   # of basis functions in Aux-C            ...    726
   # of shells in Aux-C                     ...    222
   Maximum angular momentum in Aux-C        ...      4
Auxiliary 'external' fitting basis          ... NOT available

Checking pre-screening integrals            ... done (  0.0 sec) Dimension = 120
   => SHARK Basis and OBASIS are compatible. Storing Pre-screening
Shell pair information
Shell pair cut-off parameter TPreSel        ...   1.0e-14
Total number of shell pairs                 ...      7260
Shell pairs after pre-screening             ...      7026
Total number of primitive shell pairs       ...     18687
Primitive shell pairs kept                  ...     14945
          la=0 lb=0:   1567 shell pairs
          la=1 lb=0:   1984 shell pairs
          la=1 lb=1:    652 shell pairs
          la=2 lb=0:   1159 shell pairs
          la=2 lb=1:    739 shell pairs
          la=2 lb=2:    228 shell pairs
          la=3 lb=0:    337 shell pairs
          la=3 lb=1:    213 shell pairs
          la=3 lb=2:    126 shell pairs
          la=3 lb=3:     21 shell pairs

Checking whether 4 symmetric matrices of dimension 312 fit in memory
:Max Core in MB      =   6000.00
 MB in use           =     12.14
 MB left             =   5987.86
 MB needed           =      1.49
 Data fit in memory  = YES
Calculating RI/J V-Matrix + Cholesky decomp.... done (  0.0 sec)
Calculating RI/C V-Matrix + Cholesky decomp.... done (  0.0 sec)
Calculating Nuclear repulsion               ... done (  0.0 sec) ENN=    246.127217101213 Eh

Diagonalization of the overlap matrix:
Smallest eigenvalue                        ... 7.677e-05
Time for diagonalization                   ...    0.021 sec
Threshold for overlap eigenvalues          ... 1.000e-07
Number of eigenvalues below threshold      ... 0
Time for construction of square roots      ...    0.009 sec
Total time needed                          ...    0.032 sec

-------------------
DFT GRID GENERATION
-------------------

General Integration Accuracy     IntAcc      ... 4.959
Radial Grid Type                 RadialGrid  ... OptM3 with GC (2021)
Angular Grid (max. ang.)         AngularGrid ... 6 (Lebedev-590)
Angular grid pruning method      GridPruning ... 4 (adaptive)
Weight generation scheme         WeightScheme... mBecke (2022)
Basis function cutoff            BFCut       ... 1.0000e-12
Integration weight cutoff        WCut        ... 1.0000e-14
Partially contracted basis set               ... off
Rotationally invariant grid construction     ... off
Angular grids for H and He will be reduced by one unit

Total number of grid points                  ...   163967
Total number of batches                      ...     2571
Average number of points per batch           ...       63
Average number of grid points per atom       ...    10931

--------------------
COSX GRID GENERATION
--------------------

GRIDX 1
-------
General Integration Accuracy     IntAcc      ... 4.020
Radial Grid Type                 RadialGrid  ... OptM3 with GC (2021)
Angular Grid (max. ang.)         AngularGrid ... 2 (Lebedev-110)
Angular grid pruning method      GridPruning ... 4 (adaptive)
Weight generation scheme         WeightScheme... mBecke (2022)
Basis function cutoff            BFCut       ... 1.0000e-12
Integration weight cutoff        WCut        ... 1.0000e-14
Partially contracted basis set               ... on
Rotationally invariant grid construction     ... off
Angular grids for H and He will be reduced by one unit

Total number of grid points                  ...    17616
Total number of batches                      ...      145
Average number of points per batch           ...      121
Average number of grid points per atom       ...     1174
UseSFitting                                  ... on

GRIDX 2
-------
General Integration Accuracy     IntAcc      ... 4.338
Radial Grid Type                 RadialGrid  ... OptM3 with GC (2021)
Angular Grid (max. ang.)         AngularGrid ... 3 (Lebedev-194)
Angular grid pruning method      GridPruning ... 4 (adaptive)
Weight generation scheme         WeightScheme... mBecke (2022)
Basis function cutoff            BFCut       ... 1.0000e-12
Integration weight cutoff        WCut        ... 1.0000e-14
Partially contracted basis set               ... on
Rotationally invariant grid construction     ... off
Angular grids for H and He will be reduced by one unit

Total number of grid points                  ...    38592
Total number of batches                      ...      308
Average number of points per batch           ...      125
Average number of grid points per atom       ...     2573
UseSFitting                                  ... on

GRIDX 3
-------
General Integration Accuracy     IntAcc      ... 4.871
Radial Grid Type                 RadialGrid  ... OptM3 with GC (2021)
Angular Grid (max. ang.)         AngularGrid ... 4 (Lebedev-302)
Angular grid pruning method      GridPruning ... 4 (adaptive)
Weight generation scheme         WeightScheme... mBecke (2022)
Basis function cutoff            BFCut       ... 1.0000e-12
Integration weight cutoff        WCut        ... 1.0000e-14
Partially contracted basis set               ... on
Rotationally invariant grid construction     ... off
Angular grids for H and He will be reduced by one unit

Total number of grid points                  ...    75521
Total number of batches                      ...      600
Average number of points per batch           ...      125
Average number of grid points per atom       ...     5035
UseSFitting                                  ... on
Grids setup in   3.3 sec
Initializing property integral containers    ... done (  0.0 sec)

SHARK setup successfully completed in   3.6 seconds

Maximum memory used throughout the entire STARTUP-calculation: 42.2 MB


           ************************************************************
           *        Program running with 8 parallel MPI-processes     *
           *              working on a common directory               *
           ************************************************************
-------------------------------------------------------------------------------
                                 ORCA GUESS
                   Start orbitals & Density for SCF / CASSCF
-------------------------------------------------------------------------------

------------
SCF SETTINGS
------------
Hamiltonian:
 Density Functional     Method          .... DFT(GTOs)
 Exchange Functional    Exchange        .... PBE
   PBE kappa parameter   XKappa         ....  0.804000
   PBE mue parameter    XMuePBE         ....  0.219520
 Correlation Functional Correlation     .... P86
 LDA part of GGA corr.  LDAOpt          .... VWN-5
 Gradients option       PostSCFGGA      .... off
 Hybrid DFT is turned on
   Fraction HF Exchange ScalHFX         ....  0.690000
   Scaling of DF-GGA-X  ScalDFX         ....  0.310000
   Scaling of DF-GGA-C  ScalDFC         ....  0.422400
   Scaling of DF-LDA-C  ScalLDAC        ....  0.422400
   Perturbative correction              ....  1.000000
 RI-approximation to the Coulomb term is turned on
   Number of AuxJ basis functions       .... 393
   RIJ-COSX (HFX calculated with COS-X)).... on


General Settings:
 Integral files         IntName         .... opt
 Hartree-Fock type      HFTyp           .... UHF
 Total Charge           Charge          ....    0
 Multiplicity           Mult            ....    2
 Number of Electrons    NEL             ....   47
 Basis Dimension        Dim             ....  312
 Nuclear Repulsion      ENuc            ....    246.1272171012 Eh

Convergence Acceleration:
 AO-DIIS                CNVDIIS         .... on
   Start iteration      DIISMaxIt       ....    12
   Startup error        DIISStart       ....  0.200000
   # of expansion vecs  DIISMaxEq       ....     5
   Bias factor          DIISBfac        ....   1.050
   Max. coefficient     DIISMaxC        ....  10.000
 MO-DIIS                CNVKDIIS        .... off
 Trust-Rad. Augm. Hess. CNVTRAH         .... auto
   Auto Start mean grad. ratio tolernc. ....  1.125000
   Auto Start start iteration           ....    50
   Auto Start num. interpolation iter.  ....    10
   Max. Number of Micro iterations      ....    24
   Max. Number of Macro iterations      .... Maxiter - #DIIS iter
   Number of Davidson start vectors     ....     2
   Converg. threshold    (grad. norm)   ....   2.000e-06
   Grad. Scal. Fac. for Micro threshold ....   0.100
   Minimum threshold for Micro iter.    ....   1.000e-02
   NR start threshold (gradient norm)   ....   1.000e-04
   Initial trust radius                 ....   0.400
   Minimum AH scaling param. (alpha)    ....   1.000
   Maximum AH scaling param. (alpha)    .... 1000.000
   Quad. conv. algorithm                .... NR
   White noise on init. David. guess    .... on
   Maximum white noise                  ....   0.010
   Pseudo random numbers                .... off
   Inactive MOs                         .... canonical
   Orbital update algorithm             .... Taylor
   Preconditioner                       .... Diag
   Full preconditioner red. dimension   ....   250
 SOSCF                 CNVSOSCF           .... on
   Start iteration     SOSCFMaxIt         ....   150
   Startup grad/error  SOSCFStart         ....  0.003300
   Hessian update      SOSCFHessUp        .... L-BFGS
   Autom. constraints  SOSCFAutoConstrain .... off
 Level Shifting         CNVShift        .... on
   Level shift para.    LevelShift      ....    0.2500
   Turn off err/grad.   ShiftErr        ....    0.0010
 Zerner damping         CNVZerner       .... off
 Static damping         CNVDamp         .... on
   Fraction old density DampFac         ....    0.7000
   Max. Damping (<1)    DampMax         ....    0.9800
   Min. Damping (>=0)   DampMin         ....    0.0000
   Turn off err/grad.   DampErr         ....    0.1000

SCF Procedure:
 Maximum # iterations   MaxIter         ....   125
 SCF integral mode      SCFMode         .... Direct
   Integral package                     .... SHARK and LIBINT hybrid scheme
 Reset frequency        DirectResetFreq ....    20
 Integral Threshold     Thresh          ....  1.000e-12 Eh
 Primitive CutOff       TCut            ....  1.000e-14 Eh

Convergence Tolerance:
 Convergence Check Mode ConvCheckMode   .... Total+1el-Energy
 Convergence forced     ConvForced      .... 0
 Energy Change          TolE            ....  1.000e-09 Eh
 1-El. energy change                    ....  1.000e-06 Eh
 Orbital Gradient       TolG            ....  2.000e-06
 Orbital Rotation angle TolX            ....  2.000e-06
 DIIS Error             TolErr          ....  1.000e-08

------------------------------
INITIAL GUESS: MODEL POTENTIAL
------------------------------
Loading Hartree-Fock densities                     ... done
Calculating cut-offs                               ... done
Initializing the effective Hamiltonian             ... done
Setting up the integral package (SHARK)            ... done
Starting the Coulomb interaction                   ... done (   0.1 sec)
Making the grid                                    ... done (   0.1 sec)
Mapping shells                                     ... done
Starting the XC term evaluation                    ... done (   0.1 sec)
  promolecular density results
     # of electrons  =     46.997950119
     EX              =    -36.371647209
     EC              =      0.003277910
     EX+EC           =    -36.368369299
Transforming the Hamiltonian                       ... done (   0.0 sec)
Diagonalizing the Hamiltonian                      ... done (   0.0 sec)
Back transforming the eigenvectors                 ... done (   0.0 sec)
Now organizing SCF variables                       ... done
                      ------------------
                      INITIAL GUESS DONE (   0.4 sec)
                      ------------------
             **** ENERGY FILE WAS UPDATED (opt.en.tmp) ****
Finished Guess after   3.2 sec
Maximum memory used throughout the entire GUESS-calculation: 18.2 MB


           ************************************************************
           *        Program running with 8 parallel MPI-processes     *
           *              working on a common directory               *
           ************************************************************

-------------------------------------------------------------------------------------------
                                      ORCA LEAN-SCF
                              memory conserving SCF solver
-------------------------------------------------------------------------------------------

----------------------------------------D-I-I-S--------------------------------------------
Iteration    Energy (Eh)           Delta-E    RMSDP     MaxDP     DIISErr   Damp  Time(sec)
-------------------------------------------------------------------------------------------
               ***  Starting incremental Fock matrix formation  ***
    1    -269.9536429711941992     0.00e+00  1.27e-03  1.65e-02  1.14e-01  0.700   6.5
    2    -270.0283793983095393    -7.47e-02  9.99e-04  1.10e-02  6.11e-02  0.700   3.8
                               ***Turning on AO-DIIS***
    3    -270.0683669637553521    -4.00e-02  5.31e-04  4.96e-03  2.99e-02  0.700   3.7
    4    -270.0929673467801422    -2.46e-02  1.24e-03  1.44e-02  2.13e-02  0.000   3.7
    5    -270.1480088215425894    -5.50e-02  2.32e-04  3.41e-03  3.37e-03  0.000   3.7
                              *** Initializing SOSCF ***
---------------------------------------S-O-S-C-F--------------------------------------
Iteration    Energy (Eh)           Delta-E    RMSDP     MaxDP     MaxGrad    Time(sec)
--------------------------------------------------------------------------------------
    6    -270.1484340310886409    -4.25e-04  1.44e-04  2.29e-03  1.70e-03     3.7
               *** Restarting incremental Fock matrix formation ***
    7    -270.1485759405111367    -1.42e-04  9.74e-05  1.45e-03  1.30e-03     6.7
    8    -270.1486189335483914    -4.30e-05  1.07e-04  1.55e-03  6.47e-04     5.2
    9    -270.1486336322431043    -1.47e-05  3.13e-05  3.21e-04  4.36e-04     4.9
   10    -270.1486364140806700    -2.78e-06  8.64e-06  1.11e-04  8.83e-05     4.7
   11    -270.1486366367437313    -2.23e-07  3.81e-06  5.18e-05  2.19e-05     4.5
   12    -270.1486367030050815    -6.63e-08  1.49e-06  1.61e-05  1.02e-05     4.4
   13    -270.1486367077608293    -4.76e-09  5.95e-07  7.70e-06  1.96e-06     4.3
   14    -270.1486367088339193    -1.07e-09  2.24e-07  4.04e-06  1.12e-06     4.4
   15    -270.1486367091052898    -2.71e-10  9.97e-08  1.34e-06  5.50e-07     4.0
                 **** Energy Check signals convergence ****

               *****************************************************
               *                     SUCCESS                       *
               *           SCF CONVERGED AFTER  15 CYCLES          *
               *****************************************************

Recomputing exchange energy using gridx3       ... done (    9.386 sec)
Old exchange energy                            :    -25.844662394 Eh
New exchange energy                            :    -25.844661545 Eh
Exchange energy change after final integration :      0.000000849 Eh
Total energy after final integration           :   -270.148635860 Eh
             **** ENERGY FILE WAS UPDATED (opt.en.tmp) ****

----------------
TOTAL SCF ENERGY
----------------

Total Energy       :       -270.14863586006163 Eh           -7351.11811 eV

Components:
Nuclear Repulsion  :        246.12721710121252 Eh            6697.46207 eV
Electronic Energy  :       -516.27585381042240 Eh          -14048.58020 eV
One Electron Energy:       -853.82939823417109 Eh          -23233.87911 eV
Two Electron Energy:        337.55354442374863 Eh            9185.29892 eV

Virial components:
Potential Energy   :       -539.58567358583264 Eh          -14682.87264 eV
Kinetic Energy     :        269.43703772577101 Eh            7331.75454 eV
Virial Ratio       :          2.00264105536602

DFT components:
N(Alpha)           :       24.000002537331 electrons
N(Beta)            :       23.000001203284 electrons
N(Total)           :       47.000003740614 electrons
E(X)               :      -11.547886898535 Eh       
E(C)               :       -0.718579533280 Eh       
E(XC)              :      -12.266466431814 Eh       

---------------
SCF CONVERGENCE
---------------

  Last Energy change         ...    2.7137e-10  Tolerance :   1.0000e-09
  Last MAX-Density change    ...    1.3425e-06  Tolerance :   1.0000e-08
  Last RMS-Density change    ...    9.9709e-08  Tolerance :   1.0000e-09
  Last DIIS Error            ...    1.6972e-03  Tolerance :   1.0000e-08
  Last Orbital Gradient      ...    5.5001e-07  Tolerance :   2.0000e-06
  Last Orbital Rotation      ...    1.4101e-06  Tolerance :   2.0000e-06


----------------------
UHF SPIN CONTAMINATION
----------------------

Warning: in a DFT calculation there is little theoretical justification to 
         calculate <S**2> as in Hartree-Fock theory. We will do it anyways
         but you should keep in mind that the values have only limited relevance

Expectation value of <S**2>     :     0.760624
Ideal value S*(S+1) for S=0.5   :     0.750000
Deviation                       :     0.010624

----------------
ORBITAL ENERGIES
----------------
                 SPIN UP ORBITALS
  NO   OCC          E(Eh)            E(eV) 
   0   1.0000     -19.994410      -544.0756 
   1   1.0000     -10.861087      -295.5452 
   2   1.0000     -10.822309      -294.4900 
   3   1.0000     -10.815513      -294.3051 
   4   1.0000     -10.812408      -294.2206 
   5   1.0000     -10.805098      -294.0217 
   6   1.0000      -1.227880       -33.4123 
   7   1.0000      -1.020413       -27.7668 
   8   1.0000      -0.875288       -23.8178 
   9   1.0000      -0.865539       -23.5525 
  10   1.0000      -0.711613       -19.3640 
  11   1.0000      -0.705682       -19.2026 
  12   1.0000      -0.623553       -16.9677 
  13   1.0000      -0.595949       -16.2166 
  14   1.0000      -0.553642       -15.0654 
  15   1.0000      -0.529566       -14.4102 
  16   1.0000      -0.510214       -13.8836 
  17   1.0000      -0.473476       -12.8839 
  18   1.0000      -0.452328       -12.3085 
  19   1.0000      -0.434475       -11.8227 
  20   1.0000      -0.430533       -11.7154 
  21   1.0000      -0.420427       -11.4404 
  22   1.0000      -0.372988       -10.1495 
  23   1.0000      -0.294088        -8.0025 
  24   0.0000       0.092053         2.5049 
  25   0.0000       0.116802         3.1783 
  26   0.0000       0.139027         3.7831 
  27   0.0000       0.144677         3.9369 
  28   0.0000       0.155043         4.2189 
  29   0.0000       0.165142         4.4937 
  30   0.0000       0.170009         4.6262 
  31   0.0000       0.192363         5.2345 
  32   0.0000       0.197403         5.3716 
  33   0.0000       0.233473         6.3531 
  34   0.0000       0.243807         6.6343 

                 SPIN DOWN ORBITALS
  NO   OCC          E(Eh)            E(eV) 
   0   1.0000     -19.991575      -543.9984 
   1   1.0000     -10.863346      -295.6067 
   2   1.0000     -10.817629      -294.3627 
   3   1.0000     -10.812179      -294.2143 
   4   1.0000     -10.805059      -294.0206 
   5   1.0000     -10.802488      -293.9506 
   6   1.0000      -1.219585       -33.1866 
   7   1.0000      -1.007053       -27.4033 
   8   1.0000      -0.868112       -23.6225 
   9   1.0000      -0.844145       -22.9704 
  10   1.0000      -0.709301       -19.3011 
  11   1.0000      -0.684190       -18.6178 
  12   1.0000      -0.614066       -16.7096 
  13   1.0000      -0.587005       -15.9732 
  14   1.0000      -0.549808       -14.9610 
  15   1.0000      -0.518743       -14.1157 
  16   1.0000      -0.492654       -13.4058 
  17   1.0000      -0.469397       -12.7729 
  18   1.0000      -0.445179       -12.1139 
  19   1.0000      -0.429484       -11.6869 
  20   1.0000      -0.426131       -11.5956 
  21   1.0000      -0.413774       -11.2594 
  22   1.0000      -0.368755       -10.0343 
  23   0.0000       0.040103         1.0913 
  24   0.0000       0.098698         2.6857 
  25   0.0000       0.119537         3.2528 
  26   0.0000       0.140619         3.8264 
  27   0.0000       0.147466         4.0127 
  28   0.0000       0.163347         4.4449 
  29   0.0000       0.167317         4.5529 
  30   0.0000       0.174319         4.7435 
  31   0.0000       0.193997         5.2789 
  32   0.0000       0.203322         5.5327 
  33   0.0000       0.238665         6.4944 
*Only the first 10 virtual orbitals were printed.

                    ********************************
                    * MULLIKEN POPULATION ANALYSIS *
                    ********************************

--------------------------------------------
MULLIKEN ATOMIC CHARGES AND SPIN POPULATIONS
--------------------------------------------
   0 C :   -0.151532   -0.001922
   1 C :   -0.155349    0.019828
   2 C :   -0.084686   -0.142363
   3 C :   -0.252275    1.137196
   4 C :    0.243246   -0.107123
   5 H :    0.065268    0.000137
   6 H :    0.086184    0.000730
   7 H :    0.076063   -0.001062
   8 H :    0.061161   -0.001858
   9 H :    0.078009    0.031045
  10 H :    0.069250    0.066300
  11 H :    0.108798   -0.073398
  12 H :    0.068967    0.020741
  13 O :   -0.412446    0.050189
  14 H :    0.199342    0.001561
Sum of atomic charges         :    0.0000000
Sum of atomic spin populations:    1.0000000

-----------------------------------------------------
MULLIKEN REDUCED ORBITAL CHARGES AND SPIN POPULATIONS
-----------------------------------------------------
CHARGE
  0 C s       :     3.122280  s :     3.122280
      pz      :     0.962895  p :     2.921541
      px      :     0.975967
      py      :     0.982678
      dz2     :     0.016217  d :     0.101734
      dxz     :     0.029266
      dyz     :     0.018215
      dx2y2   :     0.015549
      dxy     :     0.022487
      f0      :     0.000678  f :     0.005978
      f+1     :     0.000830
      f-1     :     0.000738
      f+2     :     0.000861
      f-2     :     0.001274
      f+3     :     0.000939
      f-3     :     0.000658

  1 C s       :     3.134438  s :     3.134438
      pz      :     0.961151  p :     2.909924
      px      :     1.045322
      py      :     0.903451
      dz2     :     0.019457  d :     0.105008
      dxz     :     0.024101
      dyz     :     0.020001
      dx2y2   :     0.022050
      dxy     :     0.019399
      f0      :     0.000553  f :     0.005978
      f+1     :     0.000687
      f-1     :     0.001008
      f+2     :     0.001287
      f-2     :     0.000960
      f+3     :     0.000678
      f-3     :     0.000805

  2 C s       :     3.087124  s :     3.087124
      pz      :     0.974353  p :     2.879630
      px      :     0.946253
      py      :     0.959024
      dz2     :     0.014609  d :     0.111659
      dxz     :     0.026243
      dyz     :     0.028466
      dx2y2   :     0.028184
      dxy     :     0.014157
      f0      :     0.000547  f :     0.006273
      f+1     :     0.000836
      f-1     :     0.000774
      f+2     :     0.001696
      f-2     :     0.000769
      f+3     :     0.000867
      f-3     :     0.000784

  3 C s       :     3.275206  s :     3.275206
      pz      :     0.971947  p :     2.885363
      px      :     0.944137
      py      :     0.969278
      dz2     :     0.010267  d :     0.084894
      dxz     :     0.011869
      dyz     :     0.017548
      dx2y2   :     0.023582
      dxy     :     0.021628
      f0      :     0.000750  f :     0.006812
      f+1     :     0.000946
      f-1     :     0.000607
      f+2     :     0.000935
      f-2     :     0.001218
      f+3     :     0.001101
      f-3     :     0.001255

  4 C s       :     3.035598  s :     3.035598
      pz      :     0.934114  p :     2.529008
      px      :     0.699552
      py      :     0.895343
      dz2     :     0.045623  d :     0.179222
      dxz     :     0.027309
      dyz     :     0.024752
      dx2y2   :     0.036685
      dxy     :     0.044853
      f0      :     0.001210  f :     0.012925
      f+1     :     0.002369
      f-1     :     0.000702
      f+2     :     0.001792
      f-2     :     0.002035
      f+3     :     0.002121
      f-3     :     0.002696

  5 H s       :     0.893275  s :     0.893275
      pz      :     0.014834  p :     0.039341
      px      :     0.013667
      py      :     0.010840
      dz2     :     0.000609  d :     0.002116
      dxz     :     0.000413
      dyz     :     0.000405
      dx2y2   :     0.000301
      dxy     :     0.000387

  6 H s       :     0.873442  s :     0.873442
      pz      :     0.009925  p :     0.038319
      px      :     0.010787
      py      :     0.017608
      dz2     :     0.000243  d :     0.002055
      dxz     :     0.000226
      dyz     :     0.000524
      dx2y2   :     0.000554
      dxy     :     0.000508

  7 H s       :     0.882898  s :     0.882898
      pz      :     0.010337  p :     0.038972
      px      :     0.017249
      py      :     0.011387
      dz2     :     0.000208  d :     0.002066
      dxz     :     0.000566
      dyz     :     0.000180
      dx2y2   :     0.000574
      dxy     :     0.000538

  8 H s       :     0.897297  s :     0.897297
      pz      :     0.018728  p :     0.039452
      px      :     0.011699
      py      :     0.009026
      dz2     :     0.000664  d :     0.002090
      dxz     :     0.000402
      dyz     :     0.000542
      dx2y2   :     0.000227
      dxy     :     0.000254

  9 H s       :     0.880968  s :     0.880968
      pz      :     0.013526  p :     0.038950
      px      :     0.008966
      py      :     0.016458
      dz2     :     0.000534  d :     0.002073
      dxz     :     0.000371
      dyz     :     0.000424
      dx2y2   :     0.000379
      dxy     :     0.000365

 10 H s       :     0.889732  s :     0.889732
      pz      :     0.011525  p :     0.038930
      px      :     0.018296
      py      :     0.009109
      dz2     :     0.000420  d :     0.002088
      dxz     :     0.000497
      dyz     :     0.000259
      dx2y2   :     0.000409
      dxy     :     0.000504

 11 H s       :     0.849350  s :     0.849350
      pz      :     0.012986  p :     0.039760
      px      :     0.010994
      py      :     0.015780
      dz2     :     0.000385  d :     0.002092
      dxz     :     0.000221
      dyz     :     0.000480
      dx2y2   :     0.000506
      dxy     :     0.000500

 12 H s       :     0.891383  s :     0.891383
      pz      :     0.018676  p :     0.037254
      px      :     0.007898
      py      :     0.010680
      dz2     :     0.000655  d :     0.002396
      dxz     :     0.000847
      dyz     :     0.000712
      dx2y2   :     0.000073
      dxy     :     0.000109

 13 O s       :     3.774567  s :     3.774567
      pz      :     1.375290  p :     4.610140
      px      :     1.485531
      py      :     1.749319
      dz2     :     0.005058  d :     0.026585
      dxz     :     0.005526
      dyz     :     0.004449
      dx2y2   :     0.007666
      dxy     :     0.003886
      f0      :     0.000114  f :     0.001154
      f+1     :     0.000128
      f-1     :     0.000205
      f+2     :     0.000294
      f-2     :     0.000085
      f+3     :     0.000206
      f-3     :     0.000122

 14 H s       :     0.706140  s :     0.706140
      pz      :     0.029033  p :     0.085770
      px      :     0.022923
      py      :     0.033813
      dz2     :     0.002907  d :     0.008748
      dxz     :     0.001654
      dyz     :     0.002662
      dx2y2   :     0.000891
      dxy     :     0.000634


SPIN
  0 C s       :    -0.002868  s :    -0.002868
      pz      :     0.001471  p :     0.000924
      px      :    -0.000488
      py      :    -0.000059
      dz2     :    -0.000036  d :     0.000052
      dxz     :    -0.000273
      dyz     :     0.000104
      dx2y2   :     0.000206
      dxy     :     0.000051
      f0      :    -0.000001  f :    -0.000030
      f+1     :    -0.000005
      f-1     :    -0.000012
      f+2     :     0.000010
      f-2     :    -0.000004
      f+3     :    -0.000008
      f-3     :    -0.000010

  1 C s       :     0.007191  s :     0.007191
      pz      :     0.002927  p :     0.013253
      px      :     0.002936
      py      :     0.007390
      dz2     :    -0.000307  d :    -0.000589
      dxz     :    -0.000184
      dyz     :    -0.000147
      dx2y2   :     0.000598
      dxy     :    -0.000548
      f0      :     0.000004  f :    -0.000028
      f+1     :     0.000004
      f-1     :    -0.000023
      f+2     :    -0.000004
      f-2     :    -0.000011
      f+3     :    -0.000020
      f-3     :     0.000022

  2 C s       :    -0.038371  s :    -0.038371
      pz      :    -0.050598  p :    -0.126215
      px      :    -0.060728
      py      :    -0.014889
      dz2     :     0.008622  d :     0.021064
      dxz     :     0.003697
      dyz     :     0.000846
      dx2y2   :     0.007689
      dxy     :     0.000211
      f0      :     0.000228  f :     0.001159
      f+1     :     0.000658
      f-1     :     0.000019
      f+2     :     0.000057
      f-2     :     0.000033
      f+3     :     0.000087
      f-3     :     0.000077

  3 C s       :     0.112683  s :     0.112683
      pz      :     0.582832  p :     1.021672
      px      :     0.350218
      py      :     0.088621
      dz2     :     0.000241  d :     0.004400
      dxz     :    -0.002135
      dyz     :     0.001957
      dx2y2   :     0.001430
      dxy     :     0.002907
      f0      :    -0.000400  f :    -0.001559
      f+1     :    -0.000221
      f-1     :    -0.000174
      f+2     :    -0.000249
      f-2     :    -0.000318
      f+3     :    -0.000132
      f-3     :    -0.000066

  4 C s       :    -0.029190  s :    -0.029190
      pz      :    -0.029027  p :    -0.096166
      px      :    -0.018089
      py      :    -0.049050
      dz2     :     0.001576  d :     0.016854
      dxz     :     0.003525
      dyz     :     0.006929
      dx2y2   :     0.004044
      dxy     :     0.000779
      f0      :     0.000197  f :     0.001379
      f+1     :     0.000035
      f-1     :     0.000005
      f+2     :     0.000444
      f-2     :     0.000164
      f+3     :     0.000116
      f-3     :     0.000419

  5 H s       :     0.000302  s :     0.000302
      pz      :     0.000016  p :    -0.000161
      px      :    -0.000082
      py      :    -0.000095
      dz2     :    -0.000000  d :    -0.000004
      dxz     :    -0.000002
      dyz     :    -0.000003
      dx2y2   :     0.000004
      dxy     :    -0.000003

  6 H s       :     0.000665  s :     0.000665
      pz      :     0.000048  p :     0.000061
      px      :     0.000014
      py      :    -0.000001
      dz2     :     0.000000  d :     0.000004
      dxz     :    -0.000000
      dyz     :     0.000002
      dx2y2   :     0.000001
      dxy     :     0.000002

  7 H s       :    -0.001146  s :    -0.001146
      pz      :    -0.000028  p :     0.000073
      px      :    -0.000026
      py      :     0.000128
      dz2     :     0.000001  d :     0.000010
      dxz     :    -0.000000
      dyz     :     0.000001
      dx2y2   :     0.000001
      dxy     :     0.000007

  8 H s       :    -0.001728  s :    -0.001728
      pz      :    -0.000121  p :    -0.000132
      px      :    -0.000006
      py      :    -0.000004
      dz2     :    -0.000003  d :     0.000002
      dxz     :    -0.000000
      dyz     :     0.000001
      dx2y2   :    -0.000001
      dxy     :     0.000005

  9 H s       :     0.031094  s :     0.031094
      pz      :     0.000106  p :    -0.000058
      px      :    -0.000412
      py      :     0.000248
      dz2     :    -0.000004  d :     0.000009
      dxz     :    -0.000004
      dyz     :    -0.000008
      dx2y2   :     0.000038
      dxy     :    -0.000013

 10 H s       :     0.065755  s :     0.065755
      pz      :     0.000618  p :     0.000504
      px      :    -0.000294
      py      :     0.000181
      dz2     :    -0.000004  d :     0.000040
      dxz     :     0.000046
      dyz     :     0.000012
      dx2y2   :    -0.000012
      dxy     :    -0.000002

 11 H s       :    -0.085881  s :    -0.085881
      pz      :     0.006894  p :     0.011660
      px      :     0.003811
      py      :     0.000955
      dz2     :     0.000260  d :     0.000822
      dxz     :    -0.000011
      dyz     :     0.000273
      dx2y2   :     0.000031
      dxy     :     0.000269

 12 H s       :     0.021124  s :     0.021124
      pz      :    -0.000182  p :    -0.000365
      px      :    -0.000317
      py      :     0.000134
      dz2     :     0.000009  d :    -0.000018
      dxz     :    -0.000019
      dyz     :    -0.000013
      dx2y2   :     0.000001
      dxy     :     0.000005

 13 O s       :    -0.000625  s :    -0.000625
      pz      :     0.003964  p :     0.051070
      px      :     0.035040
      py      :     0.012066
      dz2     :    -0.000087  d :    -0.000255
      dxz     :    -0.000012
      dyz     :    -0.000032
      dx2y2   :     0.000027
      dxy     :    -0.000150
      f0      :    -0.000001  f :    -0.000001
      f+1     :    -0.000002
      f-1     :    -0.000004
      f+2     :    -0.000002
      f-2     :     0.000001
      f+3     :     0.000007
      f-3     :    -0.000001

 14 H s       :     0.002212  s :     0.002212
      pz      :    -0.000093  p :    -0.000774
      px      :    -0.000272
      py      :    -0.000409
      dz2     :     0.000061  d :     0.000123
      dxz     :    -0.000005
      dyz     :     0.000006
      dx2y2   :    -0.000006
      dxy     :     0.000067



                     *******************************
                     * LOEWDIN POPULATION ANALYSIS *
                     *******************************

-------------------------------------------
LOEWDIN ATOMIC CHARGES AND SPIN POPULATIONS
-------------------------------------------
   0 C :   -0.009039    0.000938
   1 C :   -0.013245    0.003367
   2 C :   -0.046964    0.051854
   3 C :    0.073356    0.737770
   4 C :   -0.173343    0.048024
   5 H :    0.018038    0.000512
   6 H :    0.013988    0.000743
   7 H :    0.008123   -0.000128
   8 H :    0.010500   -0.000107
   9 H :    0.014005    0.014733
  10 H :    0.020670    0.033328
  11 H :   -0.022681    0.044124
  12 H :    0.015832    0.010986
  13 O :    0.236452    0.046615
  14 H :   -0.145691    0.007241

----------------------------------------------------
LOEWDIN REDUCED ORBITAL CHARGES AND SPIN POPULATIONS
----------------------------------------------------
CHARGE
  0 C s       :     2.695292  s :     2.695292
      pz      :     0.957011  p :     2.876304
      px      :     0.964466
      py      :     0.954828
      dz2     :     0.061457  d :     0.395853
      dxz     :     0.104012
      dyz     :     0.075836
      dx2y2   :     0.063827
      dxy     :     0.090720
      f0      :     0.005942  f :     0.041591
      f+1     :     0.005227
      f-1     :     0.005643
      f+2     :     0.006316
      f-2     :     0.005552
      f+3     :     0.007511
      f-3     :     0.005401

  1 C s       :     2.692120  s :     2.692120
      pz      :     0.960728  p :     2.874880
      px      :     0.989262
      py      :     0.924890
      dz2     :     0.070330  d :     0.404562
      dxz     :     0.097606
      dyz     :     0.082534
      dx2y2   :     0.080007
      dxy     :     0.074086
      f0      :     0.004748  f :     0.041683
      f+1     :     0.005538
      f-1     :     0.007509
      f+2     :     0.007575
      f-2     :     0.005834
      f+3     :     0.004953
      f-3     :     0.005526

  2 C s       :     2.689946  s :     2.689946
      pz      :     0.973119  p :     2.891656
      px      :     0.972286
      py      :     0.946251
      dz2     :     0.053774  d :     0.421026
      dxz     :     0.098590
      dyz     :     0.101896
      dx2y2   :     0.114854
      dxy     :     0.051911
      f0      :     0.005635  f :     0.044336
      f+1     :     0.006423
      f-1     :     0.005797
      f+2     :     0.006975
      f-2     :     0.005263
      f+3     :     0.007634
      f-3     :     0.006609

  3 C s       :     2.768812  s :     2.768812
      pz      :     0.874006  p :     2.778444
      px      :     0.916902
      py      :     0.987537
      dz2     :     0.045222  d :     0.342325
      dxz     :     0.048261
      dyz     :     0.072638
      dx2y2   :     0.090714
      dxy     :     0.085490
      f0      :     0.003481  f :     0.037063
      f+1     :     0.006068
      f-1     :     0.003351
      f+2     :     0.004344
      f-2     :     0.006873
      f+3     :     0.005249
      f-3     :     0.007696

  4 C s       :     2.698925  s :     2.698925
      pz      :     0.945751  p :     2.738901
      px      :     0.816568
      py      :     0.976581
      dz2     :     0.138728  d :     0.648535
      dxz     :     0.115302
      dyz     :     0.082505
      dx2y2   :     0.149857
      dxy     :     0.162142
      f0      :     0.007436  f :     0.086983
      f+1     :     0.014017
      f-1     :     0.005077
      f+2     :     0.015030
      f-2     :     0.014329
      f+3     :     0.013824
      f-3     :     0.017269

  5 H s       :     0.805579  s :     0.805579
      pz      :     0.054186  p :     0.147501
      px      :     0.053340
      py      :     0.039975
      dz2     :     0.007263  d :     0.028883
      dxz     :     0.007129
      dyz     :     0.005278
      dx2y2   :     0.004041
      dxy     :     0.005171

  6 H s       :     0.809561  s :     0.809561
      pz      :     0.043181  p :     0.147343
      px      :     0.043731
      py      :     0.060431
      dz2     :     0.003532  d :     0.029108
      dxz     :     0.003261
      dyz     :     0.006991
      dx2y2   :     0.008060
      dxy     :     0.007263

  7 H s       :     0.814419  s :     0.814419
      pz      :     0.041621  p :     0.148735
      px      :     0.062962
      py      :     0.044152
      dz2     :     0.003157  d :     0.028724
      dxz     :     0.008219
      dyz     :     0.002241
      dx2y2   :     0.007775
      dxy     :     0.007331

  8 H s       :     0.811669  s :     0.811669
      pz      :     0.058952  p :     0.149059
      px      :     0.051086
      py      :     0.039021
      dz2     :     0.008769  d :     0.028772
      dxz     :     0.007370
      dyz     :     0.006423
      dx2y2   :     0.003140
      dxy     :     0.003070

  9 H s       :     0.809545  s :     0.809545
      pz      :     0.052939  p :     0.147993
      px      :     0.038886
      py      :     0.056168
      dz2     :     0.006455  d :     0.028457
      dxz     :     0.004865
      dyz     :     0.007453
      dx2y2   :     0.005028
      dxy     :     0.004656

 10 H s       :     0.802719  s :     0.802719
      pz      :     0.048364  p :     0.148358
      px      :     0.061763
      py      :     0.038231
      dz2     :     0.005119  d :     0.028253
      dxz     :     0.007815
      dyz     :     0.003178
      dx2y2   :     0.005997
      dxy     :     0.006144

 11 H s       :     0.826518  s :     0.826518
      pz      :     0.053930  p :     0.166400
      px      :     0.046594
      py      :     0.065875
      dz2     :     0.005086  d :     0.029764
      dxz     :     0.002531
      dyz     :     0.007982
      dx2y2   :     0.006843
      dxy     :     0.007322

 12 H s       :     0.814288  s :     0.814288
      pz      :     0.070437  p :     0.141223
      px      :     0.029687
      py      :     0.041099
      dz2     :     0.010665  d :     0.028658
      dxz     :     0.007587
      dyz     :     0.008579
      dx2y2   :     0.000783
      dxy     :     0.001043

 13 O s       :     3.259169  s :     3.259169
      pz      :     1.378553  p :     4.434842
      px      :     1.431891
      py      :     1.624398
      dz2     :     0.014787  d :     0.065232
      dxz     :     0.015587
      dyz     :     0.012132
      dx2y2   :     0.013726
      dxy     :     0.008999
      f0      :     0.000537  f :     0.004305
      f+1     :     0.000788
      f-1     :     0.000678
      f+2     :     0.000760
      f-2     :     0.000409
      f+3     :     0.000617
      f-3     :     0.000514

 14 H s       :     0.692429  s :     0.692429
      pz      :     0.144507  p :     0.353883
      px      :     0.082769
      py      :     0.126607
      dz2     :     0.032338  d :     0.099380
      dxz     :     0.022925
      dyz     :     0.026735
      dx2y2   :     0.009366
      dxy     :     0.008016


SPIN
  0 C s       :     0.000047  s :     0.000047
      pz      :     0.000792  p :     0.001775
      px      :     0.000553
      py      :     0.000429
      dz2     :    -0.000208  d :    -0.000555
      dxz     :    -0.000265
      dyz     :     0.000182
      dx2y2   :    -0.000315
      dxy     :     0.000051
      f0      :    -0.000005  f :    -0.000328
      f+1     :    -0.000034
      f-1     :    -0.000068
      f+2     :    -0.000019
      f-2     :    -0.000021
      f+3     :    -0.000128
      f-3     :    -0.000052

  1 C s       :     0.000787  s :     0.000787
      pz      :     0.000603  p :     0.004889
      px      :     0.000599
      py      :     0.003688
      dz2     :    -0.000733  d :    -0.001965
      dxz     :    -0.000293
      dyz     :    -0.000538
      dx2y2   :     0.000739
      dxy     :    -0.001140
      f0      :    -0.000012  f :    -0.000344
      f+1     :    -0.000007
      f-1     :    -0.000139
      f+2     :    -0.000063
      f-2     :    -0.000070
      f+3     :    -0.000117
      f-3     :     0.000064

  2 C s       :    -0.004424  s :    -0.004424
      pz      :    -0.011421  p :    -0.032309
      px      :    -0.016286
      py      :    -0.004601
      dz2     :     0.032893  d :     0.080681
      dxz     :     0.015033
      dyz     :     0.003100
      dx2y2   :     0.027709
      dxy     :     0.001946
      f0      :     0.001598  f :     0.007906
      f+1     :     0.004530
      f-1     :     0.000107
      f+2     :     0.000392
      f-2     :     0.000150
      f+3     :     0.000793
      f-3     :     0.000336

  3 C s       :     0.027849  s :     0.027849
      pz      :     0.430429  p :     0.721132
      px      :     0.252591
      py      :     0.038113
      dz2     :    -0.000851  d :    -0.009942
      dxz     :    -0.003237
      dyz     :    -0.001484
      dx2y2   :    -0.002645
      dxy     :    -0.001725
      f0      :    -0.000521  f :    -0.001270
      f+1     :     0.000764
      f-1     :    -0.000187
      f+2     :    -0.000304
      f-2     :    -0.000249
      f+3     :    -0.000593
      f-3     :    -0.000179

  4 C s       :    -0.004070  s :    -0.004070
      pz      :    -0.005227  p :    -0.024371
      px      :    -0.001207
      py      :    -0.017936
      dz2     :     0.004798  d :     0.066807
      dxz     :     0.011714
      dyz     :     0.026326
      dx2y2   :     0.016297
      dxy     :     0.007672
      f0      :     0.001064  f :     0.009657
      f+1     :     0.000339
      f-1     :     0.000210
      f+2     :     0.003025
      f-2     :     0.001216
      f+3     :     0.001143
      f-3     :     0.002661

  5 H s       :     0.000557  s :     0.000557
      pz      :     0.000005  p :    -0.000063
      px      :     0.000029
      py      :    -0.000096
      dz2     :     0.000008  d :     0.000017
      dxz     :    -0.000003
      dyz     :     0.000000
      dx2y2   :     0.000009
      dxy     :     0.000002

  6 H s       :     0.000764  s :     0.000764
      pz      :     0.000019  p :    -0.000032
      px      :     0.000017
      py      :    -0.000068
      dz2     :     0.000004  d :     0.000010
      dxz     :    -0.000005
      dyz     :     0.000001
      dx2y2   :     0.000006
      dxy     :     0.000005

  7 H s       :    -0.000400  s :    -0.000400
      pz      :    -0.000011  p :     0.000207
      px      :     0.000008
      py      :     0.000210
      dz2     :     0.000005  d :     0.000065
      dxz     :    -0.000001
      dyz     :     0.000003
      dx2y2   :     0.000018
      dxy     :     0.000041

  8 H s       :    -0.000626  s :    -0.000626
      pz      :     0.000000  p :     0.000429
      px      :     0.000292
      py      :     0.000137
      dz2     :     0.000002  d :     0.000090
      dxz     :     0.000015
      dyz     :     0.000019
      dx2y2   :    -0.000001
      dxy     :     0.000054

  9 H s       :     0.017067  s :     0.017067
      pz      :     0.000476  p :    -0.001811
      px      :    -0.001848
      py      :    -0.000439
      dz2     :    -0.000142  d :    -0.000524
      dxz     :    -0.000173
      dyz     :    -0.000125
      dx2y2   :     0.000112
      dxy     :    -0.000194

 10 H s       :     0.034492  s :     0.034492
      pz      :    -0.000850  p :    -0.000559
      px      :     0.000523
      py      :    -0.000231
      dz2     :    -0.000232  d :    -0.000605
      dxz     :    -0.000057
      dyz     :    -0.000008
      dx2y2   :    -0.000225
      dxy     :    -0.000083

 11 H s       :    -0.025089  s :    -0.025089
      pz      :     0.032030  p :     0.058243
      px      :     0.019016
      py      :     0.007197
      dz2     :     0.003546  d :     0.010970
      dxz     :     0.000033
      dyz     :     0.003567
      dx2y2   :     0.000399
      dxy     :     0.003426

 12 H s       :     0.012542  s :     0.012542
      pz      :    -0.000496  p :    -0.000994
      px      :    -0.000389
      py      :    -0.000109
      dz2     :    -0.000098  d :    -0.000562
      dxz     :    -0.000169
      dyz     :    -0.000271
      dx2y2   :    -0.000022
      dxy     :    -0.000002

 13 O s       :     0.003004  s :     0.003004
      pz      :     0.002462  p :     0.044622
      px      :     0.028467
      py      :     0.013694
      dz2     :    -0.000138  d :    -0.000928
      dxz     :    -0.000267
      dyz     :    -0.000159
      dx2y2   :    -0.000316
      dxy     :    -0.000048
      f0      :    -0.000011  f :    -0.000083
      f+1     :    -0.000005
      f-1     :    -0.000011
      f+2     :    -0.000019
      f-2     :    -0.000008
      f+3     :    -0.000014
      f-3     :    -0.000015

 14 H s       :     0.004363  s :     0.004363
      pz      :     0.001760  p :     0.000814
      px      :    -0.000193
      py      :    -0.000753
      dz2     :     0.001206  d :     0.002064
      dxz     :     0.000348
      dyz     :     0.000008
      dx2y2   :    -0.000052
      dxy     :     0.000554



                      *****************************
                      * MAYER POPULATION ANALYSIS *
                      *****************************

  NA   - Mulliken gross atomic population
  ZA   - Total nuclear charge
[...]
     40       0.000124   0.000020  -0.000029   0.000072  -0.000393   0.000102
     41       0.000025   0.000061   0.000266  -0.000071   0.000328  -0.000052
     42      -0.000243  -0.001143   0.001229  -0.000495   0.006262  -0.002152
     43      -0.000358  -0.000275  -0.001135   0.000231   0.005683   0.000282
     44      -0.000081   0.001378   0.000134   0.000361  -0.011303   0.000611
                 42         43         44    
      0       0.052558   0.000225  -0.000055
      1       0.053706  -0.001108  -0.000101
      2       0.045897  -0.000037  -0.000034
      3       0.022402   0.000246   0.000010
      4      -0.007099  -0.000523   0.000023
      5       0.008113  -0.001005  -0.000020
      6       0.001053   0.002438   0.000049
      7      -0.001813   0.001575   0.000016
      8       0.002169  -0.002790   0.000026
      9      -0.000098  -0.028573   0.000119
     10       0.000127   0.072019   0.000321
     11       0.000126   0.038216  -0.000122
     12       0.001087  -0.002265  -0.001878
     13      -0.000205  -0.002610  -0.000992
     14       0.002628   0.002630   0.001363
     15      -0.242180  -0.003309  -0.001422
     16       0.104977   0.001466   0.000531
     17      -0.251462  -0.003003  -0.000393
     18      -0.391342   0.002733   0.000520
     19      -0.737070   0.006776   0.000025
     20      -0.303704   0.002285   0.000133
     21      -0.168726  -0.004411   0.000288
     22       0.073938   0.002365  -0.000203
     23       0.055356   0.002110   0.000160
     24      -0.100406   0.003811  -0.000889
     25       0.010896   0.000111   0.000391
     26      -0.145877   0.005459   0.000058
     27       0.000688  -0.003676  -0.000426
     28       0.017996  -0.017116  -0.000135
     29      -0.016062   0.017614   0.000046
     30      -0.015210   0.000831  -0.000198
     31      -0.002600   0.000876   0.000070
     32      -0.009247   0.000517  -0.000085
     33       0.001266   0.328887   0.000614
     34      -0.004703  -0.829606  -0.000647
     35      -0.002610  -0.440987  -0.000473
     36       0.003994   0.006731   0.003497
     37       0.006291   0.009053   0.003344
     38      -0.024006  -0.026668  -0.010630
     39      -0.000276   0.000116  -0.002026
     40      -0.000212  -0.000037  -0.031906
     41      -0.000340  -0.000024   0.053678
     42      -0.001217  -0.000640   0.051091
     43       0.000829   0.000274   0.511763
     44       0.000764   0.001990  -0.855241


-----------
IR SPECTRUM
-----------

 Mode   freq       eps      Int      T**2         TX        TY        TZ
       cm**-1   L/(mol*cm) km/mol    a.u.
----------------------------------------------------------------------------
  6:    119.86   0.000297    1.50  0.000773  ( 0.001473 -0.016107 -0.022603)
  7:    216.27   0.012464   62.99  0.017984  ( 0.024974 -0.111888 -0.069580)
  8:    219.46   0.004986   25.20  0.007091  ( 0.019077 -0.073742 -0.035899)
  9:    355.99   0.001454    7.35  0.001275  (-0.023990 -0.003057 -0.026261)
 10:    412.96   0.000640    3.24  0.000484  (-0.012946  0.017518  0.003079)
 11:    477.07   0.005108   25.82  0.003342  ( 0.035632 -0.029761  0.034441)
 12:    593.44   0.000040    0.20  0.000021  (-0.000124 -0.004524 -0.000661)
 13:    749.10   0.001921    9.71  0.000800  (-0.021910  0.005180 -0.017130)
 14:    810.28   0.002855   14.43  0.001099  (-0.030930 -0.002956 -0.011577)
 15:    856.34   0.000191    0.97  0.000070  ( 0.000211  0.007266  0.004106)
 16:    902.76   0.002402   12.14  0.000830  ( 0.024533 -0.001338  0.015055)
 17:    913.77   0.000975    4.93  0.000333  ( 0.007567 -0.016189 -0.003677)
 18:    934.91   0.000770    3.89  0.000257  ( 0.005510  0.015007 -0.001183)
 19:    984.53   0.006788   34.30  0.002152  ( 0.044454 -0.002724  0.012962)
 20:   1042.21   0.003069   15.51  0.000919  (-0.029332 -0.002170 -0.007339)
 21:   1047.67   0.002072   10.47  0.000617  ( 0.023758  0.001891  0.007020)
 22:   1068.45   0.001193    6.03  0.000349  ( 0.014226 -0.010574  0.005861)
 23:   1137.97   0.007870   39.77  0.002158  ( 0.042047  0.005259  0.019041)
 24:   1205.35   0.000446    2.25  0.000115  ( 0.007643 -0.007527  0.000538)
 25:   1230.58   0.003202   16.18  0.000812  ( 0.027903 -0.001934  0.005436)
 26:   1259.04   0.000666    3.37  0.000165  (-0.009552 -0.001702 -0.008422)
 27:   1295.48   0.001158    5.85  0.000279  (-0.009560 -0.011228 -0.007841)
 28:   1314.49   0.000171    0.86  0.000041  (-0.006043 -0.000756  0.001867)
 29:   1334.22   0.000018    0.09  0.000004  ( 0.002004  0.000106 -0.000364)
 30:   1366.40   0.000009    0.04  0.000002  (-0.000228 -0.000738 -0.001174)
 31:   1371.82   0.000152    0.77  0.000034  ( 0.003168  0.004544  0.001946)
 32:   1422.50   0.008489   42.90  0.001862  (-0.041545 -0.009884 -0.006217)
 33:   1478.54   0.000817    4.13  0.000172  (-0.005919 -0.011637  0.001391)
 34:   1490.43   0.001419    7.17  0.000297  ( 0.014167 -0.005246  0.008303)
 35:   1513.86   0.000639    3.23  0.000132  (-0.004624  0.001969  0.010316)
 36:   2984.77   0.005413   27.36  0.000566  ( 0.021264  0.008875  0.005920)
 37:   3048.47   0.002985   15.09  0.000306  (-0.005343  0.016311  0.003310)
 38:   3053.47   0.004474   22.61  0.000457  (-0.008710  0.000288 -0.019528)
 39:   3072.30   0.007483   37.82  0.000760  (-0.003842 -0.015251  0.022644)
 40:   3085.88   0.007381   37.30  0.000746  ( 0.004164  0.009588 -0.025241)
 41:   3116.63   0.006205   31.36  0.000621  ( 0.020246 -0.014279 -0.002738)
 42:   3127.74   0.004786   24.19  0.000477  ( 0.016077  0.010576  0.010353)
 43:   3227.97   0.002474   12.50  0.000239  (-0.005924  0.012094  0.007606)
 44:   3831.40   0.003779   19.10  0.000308  (-0.008078  0.007647 -0.013566)

* The epsilon (eps) is given for a Dirac delta lineshape.
** The dipole moment derivative (T) already includes vibrational overlap.

The first frequency considered to be a vibration is 6
The total number of vibrations considered is 39


--------------------------
THERMOCHEMISTRY AT 298.15K
--------------------------

Temperature         ...   298.15 K
Pressure            ...     1.00 atm
Total Mass          ...    85.13 AMU
Quasi RRHO          ...     True
Cut-Off Frequency   ...     1.00 cm^-1

Throughout the following assumptions are being made:
  (1) The electronic state is orbitally nondegenerate
      but the spin degeneracy is treated
  (2) There are no thermally accessible electronically excited states
  (3) Hindered rotations indicated by low frequency modes are not
      treated as such but are treated as vibrations and this may
      cause some error
  (4) All equations used are the standard statistical mechanics
      equations for an ideal gas
  (5) All vibrations are strictly harmonic

freq.     119.86  E(vib)   ...       0.44 
freq.     216.27  E(vib)   ...       0.34 
freq.     219.46  E(vib)   ...       0.33 
freq.     355.99  E(vib)   ...       0.22 
freq.     412.96  E(vib)   ...       0.19 
freq.     477.07  E(vib)   ...       0.15 
freq.     593.44  E(vib)   ...       0.10 
freq.     749.10  E(vib)   ...       0.06 
freq.     810.28  E(vib)   ...       0.05 
freq.     856.34  E(vib)   ...       0.04 
freq.     902.76  E(vib)   ...       0.03 
freq.     913.77  E(vib)   ...       0.03 
freq.     934.91  E(vib)   ...       0.03 
freq.     984.53  E(vib)   ...       0.02 
freq.    1042.21  E(vib)   ...       0.02 
freq.    1047.67  E(vib)   ...       0.02 
freq.    1068.45  E(vib)   ...       0.02 
freq.    1137.97  E(vib)   ...       0.01 
freq.    1205.35  E(vib)   ...       0.01 
freq.    1230.58  E(vib)   ...       0.01 
freq.    1259.04  E(vib)   ...       0.01 
freq.    1295.48  E(vib)   ...       0.01 
freq.    1314.49  E(vib)   ...       0.01 
freq.    1334.22  E(vib)   ...       0.01 
freq.    1366.40  E(vib)   ...       0.01 
freq.    1371.82  E(vib)   ...       0.01 
freq.    1422.50  E(vib)   ...       0.00 
freq.    1478.54  E(vib)   ...       0.00 
freq.    1490.43  E(vib)   ...       0.00 
freq.    1513.86  E(vib)   ...       0.00 
freq.    2984.77  E(vib)   ...       0.00 
freq.    3048.47  E(vib)   ...       0.00 
freq.    3053.47  E(vib)   ...       0.00 
freq.    3072.30  E(vib)   ...       0.00 
freq.    3085.88  E(vib)   ...       0.00 
freq.    3116.63  E(vib)   ...       0.00 
freq.    3127.74  E(vib)   ...       0.00 
freq.    3227.97  E(vib)   ...       0.00 
freq.    3831.40  E(vib)   ...       0.00 

------------
INNER ENERGY
------------

The inner energy is: U= E(el) + E(ZPE) + E(vib) + E(rot) + E(trans)
    E(el)   - is the total energy from the electronic structure calculation
              = E(kin-el) + E(nuc-el) + E(el-el) + E(nuc-nuc)
    E(ZPE)  - the the zero temperature vibrational energy from the frequency calculation
    E(vib)  - the the finite temperature correction to E(ZPE) due to population
              of excited vibrational states
    E(rot)  - is the rotational thermal energy
    E(trans)- is the translational thermal energy

Summary of contributions to the inner energy U:
Electronic energy                ...   -270.71040148 Eh
Zero point energy                ...      0.13139188 Eh      82.45 kcal/mol
Thermal vibrational correction   ...      0.00347208 Eh       2.18 kcal/mol
Thermal rotational correction    ...      0.00141627 Eh       0.89 kcal/mol
Thermal translational correction ...      0.00141627 Eh       0.89 kcal/mol
-----------------------------------------------------------------------
Total thermal energy                   -270.57270497 Eh


Summary of corrections to the electronic energy:
(perhaps to be used in another calculation)
Total thermal correction                  0.00630462 Eh       3.96 kcal/mol
Non-thermal (ZPE) correction              0.13139188 Eh      82.45 kcal/mol
-----------------------------------------------------------------------
Total correction                          0.13769651 Eh      86.41 kcal/mol


--------
ENTHALPY
--------

The enthalpy is H = U + kB*T
                kB is Boltzmann's constant
Total thermal energy              ...   -270.57270497 Eh 
Thermal Enthalpy correction       ...      0.00094421 Eh       0.59 kcal/mol
-----------------------------------------------------------------------
Total Enthalpy                    ...   -270.57176076 Eh


Note: Only C1 symmetry has been detected, increase convergence thresholds 
      if your molecule has a higher symmetry. Symmetry factor of 1.0 is   
      used for the rotational entropy correction. 
 

Note: Rotational entropy computed according to Herzberg 
Infrared and Raman Spectra, Chapter V,1, Van Nostrand Reinhold, 1945 
Point Group:  C1, Symmetry Number:   1  
Rotational constants in cm-1:     0.194180     0.112158     0.088904 

Vibrational entropy computed according to the QRRHO of S. Grimme
Chem.Eur.J. 2012 18 9955 using a reference frequency of 100.0 cm-1


-------
ENTROPY
-------

The entropy contributions are T*S = T*(S(el)+S(vib)+S(rot)+S(trans))
     S(el)   - electronic entropy
     S(vib)  - vibrational entropy
     S(rot)  - rotational entropy
     S(trans)- translational entropy
The entropies will be listed as multiplied by the temperature to get
units of energy

Electronic entropy                ...      0.00065446 Eh      0.41 kcal/mol
Vibrational entropy               ...      0.00562435 Eh      3.53 kcal/mol
Rotational entropy                ...      0.01245996 Eh      7.82 kcal/mol
Translational entropy             ...      0.01864317 Eh     11.70 kcal/mol
-----------------------------------------------------------------------
Final entropy term                ...      0.03738194 Eh     23.46 kcal/mol

In case the symmetry of your molecule has not been determined correctly
or in case you have a reason to use a different symmetry number we print 
out the resulting rotational entropy values for sn=1,12:

 non-linear molecules -----------------------------------
|  sn= 1 | S(rot)=       0.01245996 Eh      7.82 kcal/mol|
|  sn= 2 | S(rot)=       0.01180551 Eh      7.41 kcal/mol|
|  sn= 3 | S(rot)=       0.01142267 Eh      7.17 kcal/mol|
|  sn= 4 | S(rot)=       0.01115105 Eh      7.00 kcal/mol|
|  sn= 5 | S(rot)=       0.01094036 Eh      6.87 kcal/mol|
|  sn= 6 | S(rot)=       0.01076822 Eh      6.76 kcal/mol|
|  sn= 7 | S(rot)=       0.01062267 Eh      6.67 kcal/mol|
|  sn= 8 | S(rot)=       0.01049659 Eh      6.59 kcal/mol|
|  sn= 9 | S(rot)=       0.01038539 Eh      6.52 kcal/mol|
|  sn=10 | S(rot)=       0.01028591 Eh      6.45 kcal/mol|
|  sn=11 | S(rot)=       0.01019592 Eh      6.40 kcal/mol|
|  sn=12 | S(rot)=       0.01011376 Eh      6.35 kcal/mol|
 linear molecules ---------------------------------------
|  Dinfh | S(rot)=       0.00761091 Eh      4.78 kcal/mol|
|  Cinfv | S(rot)=       0.00826537 Eh      5.19 kcal/mol|
 --------------------------------------------------------


-------------------
GIBBS FREE ENERGY
-------------------

The Gibbs free energy is G = H - T*S

Total enthalpy                    ...   -270.57176076 Eh 
Total entropy correction          ...     -0.03738194 Eh    -23.46 kcal/mol
-----------------------------------------------------------------------
Final Gibbs free energy         ...   -270.60914270 Eh

For completeness - the Gibbs free energy minus the electronic energy
G-E(el)                           ...      0.10125878 Eh     63.54 kcal/mol



--------------------------------
SUGGESTED CITATIONS FOR THIS RUN
--------------------------------

Below you find a list of papers that are relevant to this ORCA run
We neither can nor want to force you to cite these papers, but we appreciate if you do
You receive ORCA, which is the product of decades of hard work by many enthusiastic individuals, for free
The only thing we kindly ask in return is that you cite our papers,
We deeply appreciate it, if you show your appreciation for ORCA by not just citing the generic ORCA reference.

Please note that relegating all ORCA citations to the supporting information does *not* help us.
SI sections are not indexed - citations you put there will not count into any citation statistics
But we need these citations in order to attract the funding resources that allow us to do what we are doing

Therefore, if you are a happy ORCA user, please consider citing a few of the papers listed below in the main body of your paper

In addition to the list printed below, the program has created the file opt.bibtex that contains the list in bibtex format
You can import this file easily into all common literature databanks and citation aid programs

It goes without saying that in many instances, there are alternative algorithms to achieve similar
results as the ones you have gotten from ORCA. It is, of course, also the case that in some instances
ORCA just re-implements algorithms worked out by others. We are fully aware of that and we are also
fully appreciative of our colleagues work. Hence this citation list should not be read as indicating
that the listed papers, which are focused on our own work, are the only ones worth citing. It simply
meant to make it easier for users to cite ORCA specific papers. It is not a substitute for doing your
own literature research and citing the relevant literature in a scientifically appropriate manner.

List of essential papers. We consider these as the minimum necessary citations

  1. Neese, F.
     Software update: the ORCA program system, version 6.0
     WIRES Comput. Molec. Sci. 2025 15(1), e70019
     doi.org/10.1002/wcms.70019

List of papers to cite with high priority. The work reported in these papers was absolutely
necessary for this run to complete.
Our perspective: the developers of density functionals and basis sets usually get cited in chemistry papers
Good! But without the algorithms to do something with them, the functionals or basis sets would not do anything.
Hence, in our opinion, the algorithm design and method developments papers are equally worthy of getting cited

  1. Neese, F.
     An improvement of the resolution of the identity approximation for the formation of the Coulomb matrix
     J. Comp. Chem. 2003 24(14), 1740-1747
     doi.org/10.1002/jcc.10318
  2. Neese, F.; Schwabe, T.; Grimme, S.
     Analytic derivatives for perturbatively corrected 'double hybrid' density functionals: Theory, implementation, and applications
     J. Chem. Phys. 2007 126(12), Art. No. 124115
     doi.org/10.1063/1.2712433
  3. Neese, F.; Wennmohs, F.; Hansen, A.; Becker, U.
     Efficient, approximate and parallel Hartree-Fock and hybrid DFT calculations. A 'chain-of-spheres' algorithm for the Hartree-Fock exchange
     Chem. Phys. 2009 356(1-3), 98-109
     doi.org/10.1016/j.chemphys.2008.10.036
  4. Kossmann, S.; Neese, F.
     Efficient Structure Optimization with Second-Order Many-Body Perturbation Theory: The RIJCOSX-MP2 Method
     J. Theo. Comp. Chem. 2010 6 , 2325-2338
     doi.org/10.1021/ct100199k
  5. Caldeweyher, E.; Bannwarth, C.; Grimme, S.
     Extension of the D3 dispersion coefficient model
     J. Chem. Phys. 2017 147 , 034112
     doi.org/10.1063/1.4993215
  6. Caldeweyher, E.; Ehlert, S.; Hansen, A.; Neugebauer, H.; Spicher, S.; Bannwarth, C.; Grimme, S.
     A generally applicable atomic-charge dependent London dispersion correction
     J. Chem. Phys. 2019 150 , 154122
     doi.org/10.1063/1.5090222
  7. Helmich-Paris, B.; de Souza, B.; Neese, F.; Izsák, R.
     An improved chain of spheres for exchange algorithm
     J. Chem. Phys. 2021 155(10), 104109
     doi.org/10.1063/5.0058766
  8. Neese, F.
     The SHARK Integral Generation and Digestion System
     J. Comp. Chem. 2022 44(3), 381
     doi.org/10.1002/jcc.26942

List of suggested additional citations. These are papers that are important in the 'surrounding' of 
of this run, or papers that preceded the highly important papers. If you like your results we are grateful for a citation.

  1. Izsak, R.; Neese, F.
     An overlap fitted chain of spheres exchange method
     J. Chem. Phys. 2011 135 , 144105
     doi.org/10.1063/1.3646921
  2. Izsak, R.; Hansen, A.; Neese, F.
     The resolution of identity and chain of spheres approximations for the LPNO-CCSD singles Fock term
     Molec. Phys. 2012 110 , 2413-2417
     doi.org/10.1080/00268976.2012.687466
  3. Neese, F.
     The ORCA program system
     WIRES Comput. Molec. Sci. 2012 2(1), 73-78
     doi.org/10.1002/wcms.81
  4. Izsak, R.; Neese, F.; Klopper, W.
     Robust fitting techniques in the chain of spheres approximation to the Fock exchange: The role of the complementary space
     J. Chem. Phys. 2013 139 , 
     doi.org/10.1063/1.4819264
  5. Neese, F.
     Software update: the ORCA program system, version 4.0
     WIRES Comput. Molec. Sci. 2018 8(1), 1-6
     doi.org/10.1002/wcms.1327
  6. Neese, F.; Wennmohs, F.; Becker, U.; Riplinger, C.
     The ORCA quantum chemistry program package
     J. Chem. Phys. 2020 152(22), 224108
     doi.org/10.1063/5.0004608
  7. Neese, F.
     Software update: The ORCA program system—Version 5.0
     WIRES Comput. Molec. Sci. 2022 12(1), e1606
     doi.org/10.1002/wcms.1606

List of optional additional citations

  1. Neese, F.
     Approximate second-order SCF convergence for spin unrestricted wavefunctions
     Chem. Phys. Lett. 2000 325(1-3), 93-98
     doi.org/10.1016/s0009-2614(00)00662-x

Timings for individual modules:

Sum of individual times          ...     8038.452 sec (= 133.974 min)
Startup calculation              ...       20.374 sec (=   0.340 min)   0.3 %
SCF iterations                   ...      163.380 sec (=   2.723 min)   2.0 %
Property calculations            ...        3.321 sec (=   0.055 min)   0.0 %
MP2 module                       ...      209.783 sec (=   3.496 min)   2.6 %
Geometry relaxation              ...        0.012 sec (=   0.000 min)   0.0 %
Numerical frequency calculation  ...     7641.582 sec (= 127.360 min)  95.1 %
                             ****ORCA TERMINATED NORMALLY****
TOTAL RUN TIME: 0 days 2 hours 12 minutes 17 seconds 969 msec
