
                                 *****************
                                 * O   R   C   A *
                                 *****************

                                            #,                                       
                                            ###                                      
                                            ####                                     
                                            #####                                    
                                            ######                                   
                                           ########,                                 
                                     ,,################,,,,,                         
                               ,,#################################,,                 
                          ,,##########################################,,             
                       ,#########################################, ''#####,          
                    ,#############################################,,   '####,        
                  ,##################################################,,,,####,       
                ,###########''''           ''''###############################       
              ,#####''   ,,,,##########,,,,          '''####'''          '####       
            ,##' ,,,,###########################,,,                        '##       
           ' ,,###''''                  '''############,,,                           
         ,,##''                                '''############,,,,        ,,,,,,###''
      ,#''                                            '''#######################'''  
     '                                                          ''''####''''         
             ,#######,   #######,   ,#######,      ##                                
            ,#'     '#,  ##    ##  ,#'     '#,    #''#        ,####,    ,#,          
            ##       ##  ##   ,#'  ##            #'  '#       #'       ,# #          
            ##       ##  #######   ##           ,######,      #####,      #          
            '#,     ,#'  ##    ##  '#,     ,#' ,#      #,     #,   #      #          
             '#######'   ##     ##  '#######'  #'      '#     '####' #    #          



                #########################################################
                #                        -***-                          #
                #          Department of theory and spectroscopy        #
                #                                                       #
                #                      Frank Neese                      #
                #                                                       #
                #     Directorship, Architecture, Infrastructure        #
                #                    SHARK, DRIVERS                     #
                #        Core code/Algorithms in most modules           #
                #                                                       #
                #        Max Planck Institute fuer Kohlenforschung      #
                #                Kaiser Wilhelm Platz 1                 #
                #                 D-45470 Muelheim/Ruhr                 #
                #                      Germany                          #
                #                                                       #
                #                  All rights reserved                  #
                #                        -***-                          #
                #########################################################


                         Program Version 6.1.1  -  RELEASE   -
                                (GIT: $487d211c$)
                          ($2025-11-21 10:33:24 +0100$)


 With contributions from (in alphabetic order):
[Max-Planck-Institut fuer Kohlenforschung]                               
  Daniel Aravena         : Magnetic Suceptibility                        
  Michael Atanasov       : Ab Initio Ligand Field Theory (pilot matlab implementation)
  Alexander A. Auer      : GIAO ZORA, VPT2 properties, NMR spectrum      
  Ute Becker             : All parallelization in ORCA, NUMFREQ, NUMCALC 
  Giovanni Bistoni       : ED, misc. LED, open-shell LED, HFLD           
  Dmytro Bykov           : pre 5.0 version of the SCF Hessian            
  Marcos Casanova-Páez   : Triplet and SCS-CIS(D). UHF-(DLPNO)-IP/EA/STEOM-CCSD. UHF-CVS-IP/STEOM-CCSD   
  Vijay G. Chilkuri      : MRCI spin determinant printing, contributions to CSF-ICE 
  Pauline Colinet        : FMM embedding                                 
  Dipayan Datta          : RHF DLPNO-CCSD density                        
  Achintya Kumar Dutta   : EOM-CC, STEOM-CC                              
  Nicolas Foglia         : Exact transition moments, OPA infrastructure, MCD improvements    
  Dmitry Ganyushin       : Spin-Orbit,Spin-Spin,Magnetic field MRCI      
  Miquel Garcia-Rates    : C-PCM and meta-GGA Hessian, CCSD/C-PCM, Gaussian charge scheme 
  Tiago L. C. Gouveia    : GS-ROHF, GS-ROCIS                             
  Yang Guo               : DLPNO-NEVPT2, F12-NEVPT2, CIM, IAO-localization        
  Andreas Hansen         : Spin unrestricted coupled pair/coupled cluster methods 
  Ingolf Harden          : AUTO-CI MPn and infrastructure                
  Benjamin Helmich-Paris : MC-RPA, TRAH-(SCF,CASSCF), AVAS, COSX integrals, SCF dyn. polar., MC-PDFT, srDFT 
  Lee Huntington         : MR-EOM, pCC                                   
  Robert Izsak           : Overlap fitted RIJCOSX, COSX-SCS-MP3, EOM     
  Riya Kayal             : Wick's Theorem for AUTO-CI, AUTO-CI UHF-CCSDT 
  Emily Kempfer          : AUTO-CI RHF CISDT and CCSDT, approximate NEVPT4
  Christian Kollmar      : KDIIS, OOCD, Brueckner-CCSD(T), CCSD density, CASPT2, CASPT2-K, improved NEVPT2 
  Axel Koslowski         : Symmetry handling                             
  Simone Kossmann        : meta-GGA functionals, TD-DFT gradient, OOMP2, (MP2 Hessian; deprecated post 5.0) 
  Lucas Lang             : DCDCAS, Hyperfine gauge corrections, ICE-SOC+SSC
  Marvin Lechner         : AUTO-CI (C++ implementation), FIC-MRCC        
  Spencer Leger          : CASSCF response                               
  Dagmar Lenk            : GEPOL surface, SMD, ORCA-2-JSON               
  Dimitrios Liakos       : Extrapolation schemes; Compound Job, Property file
  Dimitrios Manganas     : Further ROCIS development; embedding schemes. LFT, Crystal Embedding 
  Dimitrios Pantazis     : SARC Basis sets                               
  Anastasios Papadopoulos: AUTO-CI, single reference methods and gradients 
  Taras Petrenko         : pre 6.0 DFT Hessian and TD-DFT gradient,  ECA, NRVS 
  Petra Pikulova         : Analytic Raman intensities                    
  Peter Pinski           : DLPNO-MP2, DLPNO-MP2 Gradient                 
  Shashank Vittal Rao    : ES-AILFT, MagRelax                            
  Christoph Reimann      : Effective Core Potentials                     
  Marius Retegan         : Local ZFS, SOC                                
  Christoph Riplinger    : Optimizer, TS searches, QM/MM, DLPNO-CCSD(T), (RO)-DLPNO pert. Triples 
  Michael Roemelt        : Original ROCIS implementation, recursive CI coupling coefficients
  Masaaki Saitow         : Open-shell DLPNO-CCSD energy and density      
  Barbara Sandhoefer     : DKH picture change effects                    
  Yorick L. A. Schmerwitz: GMF and freeze-and-release deltaSCF, NEB S-IDPP initial path                    
  Kantharuban Sivalingam : CASSCF convergence/infrastructure, NEVPT2, NEVPT3, NEVPT4(SD), FIC-MRCI and CEPA variants
  Bernardo de Souza      : ESD, SOC TD-DFT                               
  Georgi L. Stoychev     : AutoAux, RI-MP2 NMR, DLPNO-MP2 response, X2C  
  Van Anh Tran           : RI-MP2 g-tensors                              
  Willem Van den Heuvel  : Paramagnetic NMR                              
  Zikuan Wang            : NOTCH, Electric field optimization            
  Frank Wennmohs         : Technical directorship and infrastructure     
  Hang Xu                : AUTO-CI-Response properties                   
                                                                         
[FACCTs GmbH]                                                            
  Markus Bursch, Nicolas Foglia, Miquel Garcia-Rates, Ingolf Harden, Hagen Neugebauer, Anastasios Papadopoulos, 
  Christoph Riplinger, Bernardo de Souza, Georgi L. Stoychev                                                    
                                                                 
  APM, various basis sets, CI-OPT, improved COSX, DLPNO-Multilevel,           
  DOCKER, DRACO, updates on ESD, Fragmentator, GOAT, IRC, LR-CPCM, L-BFGS, MBIS, meta-GGA TD-DFT gradient, ML-optimized integration grids, 
  MM, NACMEs, nearIR, NEB, NEB-TS, NL-DFT gradient (VV10), 2- and 3-layer-ONIOM, interface openCOSMO-RS, QMMM,   
  Crystal-QMMM, RESP, rigid body optimization, SF, symmetry and pop. for TD-DFT, various functionals, SOLVATOR                                   
                                                                         
[Other institutions]                                                     
  V. Asgeirsson          : NEB                                           
  Christoph Bannwarth    : sTDA-DFT, sTD-DFT, PBEh-3c, B97-3c, D3        
  Giovanni Bistoni       : ETS/NOCV, ADLD/ADEX, COVALED                  
  Martin Brehm           : Molecular dynamics                            
  Ronald Cardenas        : ETS/NOCV                                      
  Martina Colucci        : COVALED                                       
  Sebastian Ehlert       : rSCAN, r2SCAN, r2SCAN-3c, D4, dhf basis sets  
  Marvin Friede          : D4 for Fr, Ra, Ac-Lr                          
  Lars Goerigk           : TD-DFT with DH, B97 family of functionals     
  Stefan Grimme          : VdW corrections, initial TS optimization, DFT functionals, gCP, sTDA/sTD-DF 
  Waldemar Hujo          : DFT-NL                                        
  H. Jonsson             : NEB                                           
  Holger Kruse           : gCP                                           
  Marcel Mueller         : wB97X-3c, vDZP basis set                      
  Hagen Neugebauer       : wr2SCAN, Native XTB                           
  Gianluca Regni         : ADLD/ADEX                                     
  Tobias Risthaus        : pre 6.0 range-separated hybrid DFT and stability analysis
  Lukas Wittmann         : regularized MP2, r2SCAN double-hybrids, wr2SCAN        
                                                                         
We gratefully acknowledge several colleagues who have allowed us to      
interface, adapt or use parts of their codes:                            
  Ed Valeev, F. Pavosevic, A. Kumar             : LibInt (2-el integral package), F12 methods 
  Garnet Chan, S. Sharma, J. Yang, R. Olivares  : DMRG                   
  Ulf Ekstrom                                   : XCFun DFT Library      
  Mihaly Kallay                                 : mrcc  (arbitrary order and MRCC methods)
  Frank Weinhold                                : gennbo (NPA and NBO analysis)           
  Simon Mueller                                 : openCOSMO-RS                            
  Christopher J. Cramer and Donald G. Truhlar   : smd solvation model                     
  S Lehtola, MJT Oliveira, MAL Marques          : LibXC Library                           
  Liviu Ungur et al                             : ANISO software                          


 Your calculation uses the libint2 library for the computation of 2-el integrals
 For citations please refer to: http://libint.valeyev.net

 Your ORCA version has been built with support for libXC version: 7.0.0
 For citations please refer to: https://libxc.gitlab.io

 This ORCA versions uses:
   CBLAS   interface :  Fast vector & matrix operations
   LAPACKE interface :  Fast linear algebra routines
   SCALAPACK package :  Parallel linear algebra routines
   Shared memory     :  Shared parallel matrices
   BLAS/LAPACK       :  OpenBLAS 0.3.29  USE64BITINT DYNAMIC_ARCH NO_AFFINITY Cooperlake SINGLE_THREADED
        Core in use  :  Cooperlake
   Copyright (c) 2011-2014, The OpenBLAS Project


  ***********************************
  * Starting time: Tue Mar 10 17:15:27 2026
  * Host name:     e1-5
  * Process ID:    3390304
  * Working dir.:  /tmp/lscratch/avcopan/43474393
  ***********************************

NOTE: MaxCore=9000 MB was set to SCF,MP2,MDCI,CIPSI,MRCI,RASCI and CIS
      => If you want to overwrite this, your respective input block should be placed after the MaxCore statement


***************************************
The coordinates will be read from file: opt.xyz
***************************************


================================================================================

----- Orbital basis set information -----
Your calculation utilizes the basis: cc-pVDZ-F12 

----- AuxC basis set information -----
Your calculation utilizes the auxiliary basis: cc-pVTZ/C 
  Obtained from the EMSL Basis Set Exchange (bse.pnl.gov) Feb. 2017
  H-He, B-F, Al-Ar, Ga-Kr : F. Weigend, A. Kohn, C. Hattig, J. Chem. Phys. 116, 3175 (2002)
             Li-Be, Na-Mg : C. Haettig, Phys. Chem. Chem. Phys. 7, 59 (2005)
                       Ne : C. Haettig, Phys. Chem. Chem. Phys. 7, 59 (2005)
                            F. Weigend, A. Kohn, C. Hattig, J. Chem. Phys. 116, 3175 (2002)
                    Sc-Zn : J. G. Hill, J. A. Platts, J. Chem. Phys. 128, 044104 (2008)

----- CABS information -----
Your calculation utilizes the basis: cc-pVDZ-F12 


                    <<< The CABS basis set will be decontracted >>>

================================================================================
                                        WARNINGS
                       Please study these warnings very carefully!
================================================================================


WARNING: Post HF methods need fully converged wavefunctions
  ===> : Setting SCFConvForced true
         You can overwrite this default with %scf ConvForced false 


WARNING: MDCI localization with Augmented Hessian Foster-Boys
  ===> : Switching off randomization!

WARNING: UseCISUpdate is  only available for RHF calculations...
  ===> : Setting UseCISUpdate = false 

================================================================================
                                       INPUT FILE
================================================================================
NAME = sp.inp
|  1> # 
|  2> % MaxCore 9000
|  3> ! PAL8
|  4> ! uhf ccsd(t)-f12/ri cc-pvdz-f12 cc-pvdz-f12-cabs cc-pvtz/c
|  5> * xyzfile 0 2 opt.xyz
|  6> 
|  7> 
|  8>                          ****END OF INPUT****
================================================================================

                       ****************************
                       * Single Point Calculation *
                       ****************************

---------------------------------
CARTESIAN COORDINATES (ANGSTROEM)
---------------------------------
  C     -0.123050    1.197713   -0.180775
  C     -0.812529    0.364503    0.908229
  C     -0.943599   -1.027298    0.260395
  C      0.251493   -1.101711   -0.636240
  C      0.899272    0.235723   -0.806686
  H     -0.856445    1.481822   -0.942181
  H      0.357304    2.103885    0.188375
  H     -1.769187    0.780805    1.225248
  H     -0.172712    0.301359    1.793472
  H     -0.988584   -1.842192    0.988333
  H     -1.872947   -1.085877   -0.325321
  H      0.609287   -2.002450   -1.115267
  H      1.109372    0.482753   -1.849027
  O      2.187687    0.302568   -0.165388
  H      2.124640   -0.191604    0.656831

----------------------------
CARTESIAN COORDINATES (A.U.)
----------------------------
  NO LB      ZA    FRAG     MASS         X           Y           Z
   0 C     6.0000    0    12.011   -0.232530    2.263349   -0.341615
   1 C     6.0000    0    12.011   -1.535458    0.688812    1.716304
   2 C     6.0000    0    12.011   -1.783144   -1.941311    0.492076
   3 C     6.0000    0    12.011    0.475252   -2.081932   -1.202320
   4 C     6.0000    0    12.011    1.699377    0.445452   -1.524415
   5 H     1.0000    0     1.008   -1.618447    2.800238   -1.780464
   6 H     1.0000    0     1.008    0.675206    3.975767    0.355977
   7 H     1.0000    0     1.008   -3.343280    1.475507    2.315383
   8 H     1.0000    0     1.008   -0.326378    0.569486    3.389171
   9 H     1.0000    0     1.008   -1.868153   -3.481238    1.867679
  10 H     1.0000    0     1.008   -3.539356   -2.052010   -0.614767
  11 H     1.0000    0     1.008    1.151385   -3.784083   -2.107549
  12 H     1.0000    0     1.008    2.096409    0.912270   -3.494154
  13 O     8.0000    0    15.999    4.134130    0.571771   -0.312538
  14 H     1.0000    0     1.008    4.014988   -0.362078    1.241231

--------------------------------
INTERNAL COORDINATES (ANGSTROEM)
--------------------------------
 C      0   0   0     0.000000000000     0.00000000     0.00000000
 C      1   0   0     1.534779655787     0.00000000     0.00000000
 C      2   1   0     1.540771765181   103.31319155     0.00000000
 C      3   2   1     1.495906924100   103.23788559    31.23906732
 C      4   3   2     1.495793383983   111.70348935   347.01428258
 H      1   2   3     1.094681059297   109.47859874    77.93342027
 H      1   2   3     1.090027066592   114.14138486   199.58220456
 H      2   1   3     1.090414280953   113.15104526   237.32845291
 H      2   1   3     1.094079064782   110.04337224   117.12009694
 H      3   2   1     1.093604087822   113.37378915   154.15959789
 H      3   2   1     1.100082705416   110.11048931   273.04480255
 H      4   3   2     1.081117147382   124.84958046   167.49431167
 H      5   4   3     1.091622621850   113.23444307   228.20935569
 O      5   4   3     1.440745172676   112.21248857   110.80590539
 H     14   5   4     0.961366125743   107.34914366   322.19595744

---------------------------
INTERNAL COORDINATES (A.U.)
---------------------------
 C      0   0   0     0.000000000000     0.00000000     0.00000000
 C      1   0   0     2.900313225352     0.00000000     0.00000000
 C      2   1   0     2.911636671070   103.31319155     0.00000000
 C      3   2   1     2.826854408386   103.23788559    31.23906732
 C      4   3   2     2.826639848659   111.70348935   347.01428258
 H      1   2   3     2.068647406062   109.47859874    77.93342027
 H      1   2   3     2.059852634421   114.14138486   199.58220456
 H      2   1   3     2.060584363517   113.15104526   237.32845291
 H      2   1   3     2.067509801295   110.04337224   117.12009694
 H      3   2   1     2.066612224919   113.37378915   154.15959789
 H      3   2   1     2.078855037900   110.11048931   273.04480255
 H      4   3   2     2.043015327238   124.84958046   167.49431167
 H      5   4   3     2.062867796890   113.23444307   228.20935569
 O      5   4   3     2.722613805127   112.21248857   110.80590539
 H     14   5   4     1.816718692082   107.34914366   322.19595744

---------------------
BASIS SET INFORMATION
---------------------
There are 3 groups of distinct atoms

 Group   1 Type C   : 19s6p2d contracted to 5s5p2d pattern {88111/21111/11}
 Group   2 Type H   : 5s2p contracted to 3s2p pattern {311/11}
 Group   3 Type O   : 19s6p2d contracted to 5s5p2d pattern {88111/21111/11}

Atom   0C    basis set group =>   1
Atom   1C    basis set group =>   1
Atom   2C    basis set group =>   1
Atom   3C    basis set group =>   1
Atom   4C    basis set group =>   1
Atom   5H    basis set group =>   2
Atom   6H    basis set group =>   2
Atom   7H    basis set group =>   2
Atom   8H    basis set group =>   2
Atom   9H    basis set group =>   2
Atom  10H    basis set group =>   2
Atom  11H    basis set group =>   2
Atom  12H    basis set group =>   2
Atom  13O    basis set group =>   3
Atom  14H    basis set group =>   2
---------------------------------
AUXILIARY/C BASIS SET INFORMATION
---------------------------------
There are 3 groups of distinct atoms

 Group   1 Type C   : 8s6p5d3f1g contracted to 8s6p5d3f1g pattern {11111111/111111/11111/111/1}
 Group   2 Type H   : 4s3p2d1f contracted to 4s3p2d1f pattern {1111/111/11/1}
 Group   3 Type O   : 8s6p5d3f1g contracted to 8s6p5d3f1g pattern {11111111/111111/11111/111/1}

Atom   0C    basis set group =>   1
Atom   1C    basis set group =>   1
Atom   2C    basis set group =>   1
Atom   3C    basis set group =>   1
Atom   4C    basis set group =>   1
Atom   5H    basis set group =>   2
Atom   6H    basis set group =>   2
Atom   7H    basis set group =>   2
Atom   8H    basis set group =>   2
Atom   9H    basis set group =>   2
Atom  10H    basis set group =>   2
Atom  11H    basis set group =>   2
Atom  12H    basis set group =>   2
Atom  13O    basis set group =>   3
Atom  14H    basis set group =>   2
--------------
CABS BASIS SET
--------------
There are 3 groups of distinct atoms

 Group   1 Type C   : 15s10p6d3f1g contracted to 15s10p6d3f1g pattern {111111111111111/1111111111/111111/111/1}
 Group   2 Type H   : 8s5p2d contracted to 8s5p2d pattern {11111111/11111/11}
 Group   3 Type O   : 15s10p6d3f1g contracted to 15s10p6d3f1g pattern {111111111111111/1111111111/111111/111/1}

Atom   0C    basis set group =>   1
Atom   1C    basis set group =>   1
Atom   2C    basis set group =>   1
Atom   3C    basis set group =>   1
Atom   4C    basis set group =>   1
Atom   5H    basis set group =>   2
Atom   6H    basis set group =>   2
Atom   7H    basis set group =>   2
Atom   8H    basis set group =>   2
Atom   9H    basis set group =>   2
Atom  10H    basis set group =>   2
Atom  11H    basis set group =>   2
Atom  12H    basis set group =>   2
Atom  13O    basis set group =>   3
Atom  14H    basis set group =>   2


           ************************************************************
           *        Program running with 8 parallel MPI-processes     *
           *              working on a common directory               *
           ************************************************************
------------------------------------------------------------------------------
                             ORCA STARTUP CALCULATIONS
------------------------------------------------------------------------------
------------------------------------------------------------------------------
                   ___                                                        
                  /   \      - P O W E R E D   B Y -                         
                 /     \                                                     
                 |  |  |   _    _      __       _____    __    __             
                 |  |  |  | |  | |    /  \     |  _  \  |  |  /  |          
                  \  \/   | |  | |   /    \    | | | |  |  | /  /          
                 / \  \   | |__| |  /  /\  \   | |_| |  |  |/  /          
                |  |  |   |  __  | /  /__\  \  |    /   |      \           
                |  |  |   | |  | | |   __   |  |    \   |  |\   \          
                \     /   | |  | | |  |  |  |  | |\  \  |  | \   \       
                 \___/    |_|  |_| |__|  |__|  |_| \__\ |__|  \__/        
                                                                              
                      - O R C A' S   B I G   F R I E N D -                    
                                      &                                       
                       - I N T E G R A L  F E E D E R -                       
                                                                              
 v1 FN, 2020, v2 2021, v3 2022-2024                                           
------------------------------------------------------------------------------


----------------------
SHARK INTEGRAL PACKAGE
----------------------

Number of atoms                             ...     15
Number of basis functions                   ...    297
Number of shells                            ...    153
Maximum angular momentum                    ...      2
Integral batch strategy                     ... SHARK/LIBINT Hybrid
RI-J (if used) integral strategy            ... SPLIT-RIJ (Revised 2003 algorithm where possible)
Printlevel                                  ...      1
Contraction scheme used                     ... PARTIAL GENERAL contraction
Prescreening option                         ... SCHWARTZ
   Thresh                                   ... 1.000e-10
   Tcut                                     ... 1.000e-11
   Tpresel                                  ... 1.000e-11 
Coulomb Range Separation                    ... NOT USED
Exchange Range Separation                   ... NOT USED
Multipole approximations                    ... NOT USED
Finite Nucleus Model                        ... NOT USED
CABS basis                                  ... AVAILABLE
   # of basis functions in CABS             ...    927
   # of shells in CABS                      ...    345
   Maximum angular momentum in CABS         ...      4
F12 Gamma exponent                          ...  0.900000
F12-Geminal                                 ...  6 primitives
l =0 ng=6 ofs=0
   a( 0) =     0.220850853  d( 0)=    -0.314424804 
   a( 1) =     1.004019154  d( 1)=    -0.303695753 
   a( 2) =     3.621217265  d( 2)=    -0.168069685 
   a( 3) =    12.162483048  d( 3)=    -0.098115813 
   a( 4) =    45.855331575  d( 4)=    -0.060246641 
   a( 5) =   254.234600970  d( 5)=    -0.037263542 
Auxiliary Coulomb fitting basis             ... NOT available
Auxiliary J/K fitting basis                 ... NOT available
Auxiliary Correlation fitting basis         ... AVAILABLE
   # of basis functions in Aux-C            ...    756
   # of shells in Aux-C                     ...    228
   Maximum angular momentum in Aux-C        ...      4
Auxiliary 'external' fitting basis          ... NOT available

Checking pre-screening integrals            ... done (  0.0 sec) Dimension = 153
Save PGC pre-screening integrals            ... done (  0.0 sec) Dimension = 153
Calculate PGC overlap integrals             ... done (  0.0 sec) Dimension = 117
Calculating pre-screening integrals (ORCA)  ... done (  0.0 sec) Dimension = 117
Shell pair information
Shell pair cut-off parameter TPreSel        ...   1.0e-11
Total number of shell pairs                 ...     11781
Shell pairs after pre-screening             ...     10231
Total number of primitive shell pairs       ...     15786
Primitive shell pairs kept                  ...     12592
          la=0 lb=0:   3411 shell pairs
          la=1 lb=0:   3970 shell pairs
          la=1 lb=1:   1128 shell pairs
          la=2 lb=0:   1075 shell pairs
          la=2 lb=1:    569 shell pairs
          la=2 lb=2:     78 shell pairs

Checking whether 4 symmetric matrices of dimension 297 fit in memory
:Max Core in MB      =   9000.00
 MB in use           =     66.67
 MB left             =   8933.33
 MB needed           =      1.35
 Data fit in memory  = YES
Calculating RI/C V-Matrix + Cholesky decomp.... done (  0.0 sec)
Calculating Nuclear repulsion               ... done (  0.0 sec) ENN=    246.102008021340 Eh

Diagonalization of the overlap matrix:
Smallest eigenvalue                        ... 6.209e-05
Time for diagonalization                   ...    0.006 sec
Threshold for overlap eigenvalues          ... 1.000e-07
Number of eigenvalues below threshold      ... 0
Time for construction of square roots      ...    0.003 sec
Total time needed                          ...    0.009 sec

-------------------
DFT GRID GENERATION
-------------------

General Integration Accuracy     IntAcc      ... 4.388
Radial Grid Type                 RadialGrid  ... OptM3 with GC (2021)
Angular Grid (max. ang.)         AngularGrid ... 4 (Lebedev-302)
Angular grid pruning method      GridPruning ... 4 (adaptive)
Weight generation scheme         WeightScheme... mBecke (2022)
Basis function cutoff            BFCut       ... 1.0000e-10
Integration weight cutoff        WCut        ... 1.0000e-14
Partially contracted basis set               ... off
Rotationally invariant grid construction     ... off
Angular grids for H and He will be reduced by one unit
Diffuse basis detected: some atoms will have their outermost
                        angular grid increased by 1.

Total number of grid points                  ...    66532
Total number of batches                      ...     1048
Average number of points per batch           ...       63
Average number of grid points per atom       ...     4435

---------------------
SHARK GRID GENERATION
---------------------

General Integration Accuracy     IntAcc      ... 4.388
Radial Grid Type                 RadialGrid  ... OptM3 with GC (2021)
Angular Grid (max. ang.)         AngularGrid ... 4 (Lebedev-302)
Angular grid pruning method      GridPruning ... 4 (adaptive)
Weight generation scheme         WeightScheme... mBecke (2022)
Basis function cutoff            BFCut       ... 1.0000e-10
Integration weight cutoff        WCut        ... 1.0000e-14
Partially contracted basis set               ... off
Rotationally invariant grid construction     ... off
Angular grids for H and He will be reduced by one unit
Diffuse basis detected: some atoms will have their outermost
                        angular grid increased by 1.
Steep s-basis detected: some atoms will have their radial
                        grid points doubled.

Total number of grid points                  ...   104412
Total number of batches                      ...     1641
Average number of points per batch           ...       63
Average number of grid points per atom       ...     6961
Grids setup in   0.6 sec
Initializing property integral containers    ... done (  0.0 sec)

SHARK setup successfully completed in   1.2 seconds

Maximum memory used throughout the entire STARTUP-calculation: 88.0 MB


           ************************************************************
           *        Program running with 8 parallel MPI-processes     *
           *              working on a common directory               *
           ************************************************************
-------------------------------------------------------------------------------
                                 ORCA GUESS
                   Start orbitals & Density for SCF / CASSCF
-------------------------------------------------------------------------------

------------
SCF SETTINGS
------------
Hamiltonian:
 Ab initio Hamiltonian  Method          .... Hartree-Fock(GTOs)


General Settings:
 Integral files         IntName         .... sp
 Hartree-Fock type      HFTyp           .... UHF
 Total Charge           Charge          ....    0
 Multiplicity           Mult            ....    2
 Number of Electrons    NEL             ....   47
 Basis Dimension        Dim             ....  261
 Nuclear Repulsion      ENuc            ....    246.1020080213 Eh

Convergence Acceleration:
 AO-DIIS                CNVDIIS         .... on
   Start iteration      DIISMaxIt       ....    12
   Startup error        DIISStart       ....  0.200000
   # of expansion vecs  DIISMaxEq       ....     5
   Bias factor          DIISBfac        ....   1.050
   Max. coefficient     DIISMaxC        ....  10.000
 MO-DIIS                CNVKDIIS        .... off
 Trust-Rad. Augm. Hess. CNVTRAH         .... auto
   Auto Start mean grad. ratio tolernc. ....  1.125000
   Auto Start start iteration           ....    50
   Auto Start num. interpolation iter.  ....    10
   Max. Number of Micro iterations      ....    24
   Max. Number of Macro iterations      .... Maxiter - #DIIS iter
   Number of Davidson start vectors     ....     2
   Converg. threshold    (grad. norm)   ....   5.000e-05
   Grad. Scal. Fac. for Micro threshold ....   0.100
   Minimum threshold for Micro iter.    ....   1.000e-02
   NR start threshold (gradient norm)   ....   1.000e-04
   Initial trust radius                 ....   0.400
   Minimum AH scaling param. (alpha)    ....   1.000
   Maximum AH scaling param. (alpha)    .... 1000.000
   Quad. conv. algorithm                .... NR
   White noise on init. David. guess    .... on
   Maximum white noise                  ....   0.010
   Pseudo random numbers                .... off
   Inactive MOs                         .... canonical
   Orbital update algorithm             .... Taylor
   Preconditioner                       .... Diag
   Full preconditioner red. dimension   ....   250
 SOSCF                 CNVSOSCF           .... on
   Start iteration     SOSCFMaxIt         ....   150
   Startup grad/error  SOSCFStart         ....  0.003300
   Hessian update      SOSCFHessUp        .... L-BFGS
   Autom. constraints  SOSCFAutoConstrain .... off
 Level Shifting         CNVShift        .... on
   Level shift para.    LevelShift      ....    0.2500
   Turn off err/grad.   ShiftErr        ....    0.0010
 Zerner damping         CNVZerner       .... off
 Static damping         CNVDamp         .... on
   Fraction old density DampFac         ....    0.7000
   Max. Damping (<1)    DampMax         ....    0.9800
   Min. Damping (>=0)   DampMin         ....    0.0000
   Turn off err/grad.   DampErr         ....    0.1000

SCF Procedure:
 Maximum # iterations   MaxIter         ....   125
 SCF integral mode      SCFMode         .... Direct
   Integral package                     .... SHARK and LIBINT hybrid scheme
 Reset frequency        DirectResetFreq ....    20
 Integral Threshold     Thresh          ....  1.000e-10 Eh
 Primitive CutOff       TCut            ....  1.000e-11 Eh

Convergence Tolerance:
 Convergence Check Mode ConvCheckMode   .... Total+1el-Energy
 Convergence forced     ConvForced      .... 1
 Energy Change          TolE            ....  1.000e-06 Eh
 1-El. energy change                    ....  1.000e-03 Eh
 Orbital Gradient       TolG            ....  5.000e-05
 Orbital Rotation angle TolX            ....  5.000e-05
 DIIS Error             TolErr          ....  1.000e-06

------------------------------
INITIAL GUESS: MODEL POTENTIAL
------------------------------
Loading Hartree-Fock densities                     ... done
Calculating cut-offs                               ... done
Initializing the effective Hamiltonian             ... done
Setting up the integral package (SHARK)            ... done
Starting the Coulomb interaction                   ... done (   0.0 sec)
Making the grid                                    ... done (   0.1 sec)
Mapping shells                                     ... done
Starting the XC term evaluation                    ... done (   0.0 sec)
Transforming the Hamiltonian                       ... done (   0.0 sec)
Diagonalizing the Hamiltonian                      ... done (   0.0 sec)
Back transforming the eigenvectors                 ... done (   0.0 sec)
Now organizing SCF variables                       ... done
                      ------------------
                      INITIAL GUESS DONE (   0.1 sec)
                      ------------------
             **** ENERGY FILE WAS UPDATED (sp.en.tmp) ****
Finished Guess after   2.8 sec
Maximum memory used throughout the entire GUESS-calculation: 18.2 MB


           ************************************************************
           *        Program running with 8 parallel MPI-processes     *
           *              working on a common directory               *
           ************************************************************

-------------------------------------------------------------------------------------------
                                      ORCA LEAN-SCF
                              memory conserving SCF solver
-------------------------------------------------------------------------------------------

----------------------------------------D-I-I-S--------------------------------------------
Iteration    Energy (Eh)           Delta-E    RMSDP     MaxDP     DIISErr   Damp  Time(sec)
-------------------------------------------------------------------------------------------
               ***  Starting incremental Fock matrix formation  ***
    1    -269.1717377633749493     0.00e+00  1.60e-03  1.55e-02  1.56e-01  0.700   2.0
    2    -269.2786023333526373    -1.07e-01  1.28e-03  1.42e-02  9.73e-02  0.700   1.9
                               ***Turning on AO-DIIS***
    3    -269.3433484661944703    -6.47e-02  8.21e-04  8.71e-03  5.91e-02  0.700   1.9
    4    -269.3851416435647934    -4.18e-02  2.04e-03  1.95e-02  4.25e-02  0.000   1.8
    5    -269.4819796825536287    -9.68e-02  3.69e-04  4.48e-03  4.46e-03  0.000   1.9
                              *** Initializing SOSCF ***
---------------------------------------S-O-S-C-F--------------------------------------
Iteration    Energy (Eh)           Delta-E    RMSDP     MaxDP     MaxGrad    Time(sec)
--------------------------------------------------------------------------------------
    6    -269.4829591059450422    -9.79e-04  2.33e-04  3.11e-03  2.50e-03     1.8
               *** Restarting incremental Fock matrix formation ***
    7    -269.4832924539846317    -3.33e-04  1.46e-04  2.33e-03  1.14e-03     2.0
    8    -269.4833811495957434    -8.87e-05  1.79e-04  2.41e-03  6.55e-04     1.7
    9    -269.4834256356693913    -4.45e-05  4.18e-05  8.63e-04  2.70e-04     1.7
   10    -269.4834302675265008    -4.63e-06  2.33e-05  4.60e-04  8.53e-05     1.5
   11    -269.4834313230620637    -1.06e-06  8.24e-06  1.09e-04  4.05e-05     1.5
   12    -269.4834315331896732    -2.10e-07  3.02e-06  5.21e-05  2.20e-05     1.4
                 **** Energy Check signals convergence ****

               *****************************************************
               *                     SUCCESS                       *
               *           SCF CONVERGED AFTER  12 CYCLES          *
               *****************************************************

             **** ENERGY FILE WAS UPDATED (sp.en.tmp) ****

----------------
TOTAL SCF ENERGY
----------------

Total Energy       :       -269.48343156000760 Eh           -7333.01698 eV

Components:
Nuclear Repulsion  :        246.10200802133957 Eh            6696.77610 eV
Electronic Energy  :       -515.58543958134715 Eh          -14029.79307 eV
One Electron Energy:       -853.47137241334713 Eh          -23224.13674 eV
Two Electron Energy:        337.88593283199998 Eh            9194.34366 eV

Virial components:
Potential Energy   :       -538.66096995520365 Eh          -14657.71018 eV
Kinetic Energy     :        269.17753839519605 Eh            7324.69320 eV
Virial Ratio       :          2.00113639929481

---------------
SCF CONVERGENCE
---------------

  Last Energy change         ...    2.1013e-07  Tolerance :   1.0000e-06
  Last MAX-Density change    ...    5.2095e-05  Tolerance :   1.0000e-05
  Last RMS-Density change    ...    3.0238e-06  Tolerance :   1.0000e-06
  Last DIIS Error            ...    2.5011e-03  Tolerance :   1.0000e-06
  Last Orbital Gradient      ...    2.1972e-05  Tolerance :   5.0000e-05
  Last Orbital Rotation      ...    2.1869e-05  Tolerance :   5.0000e-05


----------------------
UHF SPIN CONTAMINATION
----------------------

Expectation value of <S**2>     :     0.765125
Ideal value S*(S+1) for S=0.5   :     0.750000
Deviation                       :     0.015125

----------------
ORBITAL ENERGIES
----------------
                 SPIN UP ORBITALS
  NO   OCC          E(Eh)            E(eV) 
   0   1.0000     -20.552024      -559.2490 
   1   1.0000     -11.276721      -306.8552 
   2   1.0000     -11.233498      -305.6790 
   3   1.0000     -11.227828      -305.5247 
   4   1.0000     -11.225540      -305.4625 
   5   1.0000     -11.218746      -305.2776 
   6   1.0000      -1.356937       -36.9241 
   7   1.0000      -1.128652       -30.7122 
   8   1.0000      -0.972574       -26.4651 
   9   1.0000      -0.959947       -26.1215 
  10   1.0000      -0.791082       -21.5264 
  11   1.0000      -0.783660       -21.3245 
  12   1.0000      -0.691174       -18.8078 
  13   1.0000      -0.660299       -17.9676 
  14   1.0000      -0.616999       -16.7894 
  15   1.0000      -0.594286       -16.1713 
  16   1.0000      -0.572487       -15.5782 
  17   1.0000      -0.534366       -14.5408 
  18   1.0000      -0.507107       -13.7991 
  19   1.0000      -0.491704       -13.3799 
  20   1.0000      -0.481682       -13.1072 
  21   1.0000      -0.473963       -12.8972 
  22   1.0000      -0.430978       -11.7275 
  23   1.0000      -0.346379        -9.4255 
  24   0.0000       0.054484         1.4826 
  25   0.0000       0.059287         1.6133 
  26   0.0000       0.059926         1.6307 
  27   0.0000       0.068134         1.8540 
  28   0.0000       0.079636         2.1670 
  29   0.0000       0.086914         2.3651 
  30   0.0000       0.101996         2.7755 
  31   0.0000       0.103814         2.8249 
  32   0.0000       0.107130         2.9151 
  33   0.0000       0.135975         3.7001 
  34   0.0000       0.138254         3.7621 

                 SPIN DOWN ORBITALS
  NO   OCC          E(Eh)            E(eV) 
   0   1.0000     -20.548745      -559.1598 
   1   1.0000     -11.280003      -306.9445 
   2   1.0000     -11.231024      -305.6117 
   3   1.0000     -11.225218      -305.4537 
   4   1.0000     -11.218661      -305.2753 
   5   1.0000     -11.209868      -305.0360 
   6   1.0000      -1.346832       -36.6492 
   7   1.0000      -1.111699       -30.2509 
   8   1.0000      -0.962796       -26.1990 
   9   1.0000      -0.933936       -25.4137 
  10   1.0000      -0.788355       -21.4522 
  11   1.0000      -0.756518       -20.5859 
  12   1.0000      -0.679827       -18.4990 
  13   1.0000      -0.649505       -17.6739 
  14   1.0000      -0.612290       -16.6613 
  15   1.0000      -0.581455       -15.8222 
  16   1.0000      -0.552467       -15.0334 
  17   1.0000      -0.528068       -14.3695 
  18   1.0000      -0.498555       -13.5664 
  19   1.0000      -0.481308       -13.0971 
  20   1.0000      -0.480138       -13.0652 
  21   1.0000      -0.467205       -12.7133 
  22   1.0000      -0.426399       -11.6029 
  23   0.0000       0.054278         1.4770 
  24   0.0000       0.059205         1.6110 
  25   0.0000       0.060213         1.6385 
  26   0.0000       0.067181         1.8281 
  27   0.0000       0.078999         2.1497 
  28   0.0000       0.080099         2.1796 
  29   0.0000       0.092884         2.5275 
  30   0.0000       0.104054         2.8315 
  31   0.0000       0.104994         2.8570 
  32   0.0000       0.128859         3.5064 
  33   0.0000       0.136421         3.7122 
*Only the first 10 virtual orbitals were printed.

                    ********************************
                    * MULLIKEN POPULATION ANALYSIS *
                    ********************************

--------------------------------------------
MULLIKEN ATOMIC CHARGES AND SPIN POPULATIONS
--------------------------------------------
   0 C :   -0.192203   -0.000550
   1 C :   -0.218306    0.031040
   2 C :   -0.159685   -0.193412
   3 C :   -0.283970    1.254734
   4 C :    0.208888   -0.145647
   5 H :    0.097862   -0.000403
   6 H :    0.136276    0.000217
   7 H :    0.129016   -0.002448
   8 H :    0.088909   -0.003084
   9 H :    0.115230    0.033540
  10 H :    0.099383    0.068638
  11 H :    0.147462   -0.109197
  12 H :    0.125393    0.026294
  13 O :   -0.514816    0.042127
  14 H :    0.220563   -0.001848
Sum of atomic charges         :    0.0000000
Sum of atomic spin populations:    1.0000000

-----------------------------------------------------
MULLIKEN REDUCED ORBITAL CHARGES AND SPIN POPULATIONS
-----------------------------------------------------
CHARGE
  0 C s       :     3.001521  s :     3.001521
      pz      :     1.017014  p :     3.090333
      px      :     1.019826
      py      :     1.053494
      dz2     :     0.015088  d :     0.100348
      dxz     :     0.030275
      dyz     :     0.017863
      dx2y2   :     0.012760
      dxy     :     0.024362

  1 C s       :     3.024543  s :     3.024543
      pz      :     1.024508  p :     3.085878
      px      :     1.094323
      py      :     0.967047
      dz2     :     0.015038  d :     0.107885
      dxz     :     0.027154
      dyz     :     0.022457
      dx2y2   :     0.023657
      dxy     :     0.019578

  2 C s       :     2.979315  s :     2.979315
      pz      :     1.026402  p :     3.075554
      px      :     1.014724
      py      :     1.034428
      dz2     :     0.013069  d :     0.104815
      dxz     :     0.026874
      dyz     :     0.027050
      dx2y2   :     0.027656
      dxy     :     0.010167

  3 C s       :     3.223803  s :     3.223803
      pz      :     0.981701  p :     2.992803
      px      :     0.997291
      py      :     1.013811
      dz2     :     0.008125  d :     0.067365
      dxz     :     0.009843
      dyz     :     0.014525
      dx2y2   :     0.017099
      dxy     :     0.017772

  4 C s       :     2.904384  s :     2.904384
      pz      :     1.001909  p :     2.709620
      px      :     0.779626
      py      :     0.928086
      dz2     :     0.039213  d :     0.177108
      dxz     :     0.033903
      dyz     :     0.023426
      dx2y2   :     0.033432
      dxy     :     0.047134

  5 H s       :     0.867567  s :     0.867567
      pz      :     0.012603  p :     0.034572
      px      :     0.012729
      py      :     0.009239

  6 H s       :     0.830608  s :     0.830608
      pz      :     0.006724  p :     0.033116
      px      :     0.008677
      py      :     0.017715

  7 H s       :     0.838842  s :     0.838842
      pz      :     0.009129  p :     0.032142
      px      :     0.013653
      py      :     0.009360

  8 H s       :     0.877380  s :     0.877380
      pz      :     0.018634  p :     0.033711
      px      :     0.007875
      py      :     0.007202

  9 H s       :     0.852327  s :     0.852327
      pz      :     0.011093  p :     0.032443
      px      :     0.006657
      py      :     0.014692

 10 H s       :     0.867665  s :     0.867665
      pz      :     0.008049  p :     0.032953
      px      :     0.018044
      py      :     0.006859

 11 H s       :     0.818992  s :     0.818992
      pz      :     0.010733  p :     0.033546
      px      :     0.008086
      py      :     0.014727

 12 H s       :     0.844339  s :     0.844339
      pz      :     0.016547  p :     0.030268
      px      :     0.004450
      py      :     0.009271

 13 O s       :     3.841441  s :     3.841441
      pz      :     1.398635  p :     4.646949
      px      :     1.480813
      py      :     1.767500
      dz2     :     0.005530  d :     0.026427
      dxz     :     0.004522
      dyz     :     0.004791
      dx2y2   :     0.007904
      dxy     :     0.003680

 14 H s       :     0.703342  s :     0.703342
      pz      :     0.025131  p :     0.076095
      px      :     0.023490
      py      :     0.027474


SPIN
  0 C s       :    -0.002022  s :    -0.002022
      pz      :     0.001653  p :     0.001764
      px      :    -0.000101
      py      :     0.000212
      dz2     :     0.000042  d :    -0.000292
      dxz     :    -0.000198
      dyz     :    -0.000103
      dx2y2   :    -0.000132
      dxy     :     0.000099

  1 C s       :     0.015069  s :     0.015069
      pz      :     0.003660  p :     0.017135
      px      :     0.003528
      py      :     0.009948
      dz2     :    -0.000191  d :    -0.001164
      dxz     :    -0.000206
      dyz     :    -0.000378
      dx2y2   :     0.000541
      dxy     :    -0.000930

  2 C s       :    -0.057282  s :    -0.057282
      pz      :    -0.058366  p :    -0.152897
      px      :    -0.075732
      py      :    -0.018800
      dz2     :     0.007638  d :     0.016767
      dxz     :     0.002557
      dyz     :     0.000626
      dx2y2   :     0.005503
      dxy     :     0.000442

  3 C s       :     0.133923  s :     0.133923
      pz      :     0.611693  p :     1.116360
      px      :     0.376892
      py      :     0.127775
      dz2     :    -0.000204  d :     0.004450
      dxz     :    -0.002275
      dyz     :     0.002043
      dx2y2   :     0.001724
      dxy     :     0.003162

  4 C s       :    -0.040297  s :    -0.040297
      pz      :    -0.031953  p :    -0.120337
      px      :    -0.027284
      py      :    -0.061100
      dz2     :     0.000883  d :     0.014988
      dxz     :     0.002699
      dyz     :     0.006515
      dx2y2   :     0.003490
      dxy     :     0.001401

  5 H s       :    -0.000202  s :    -0.000202
      pz      :    -0.000002  p :    -0.000201
      px      :    -0.000014
      py      :    -0.000185

  6 H s       :     0.000167  s :     0.000167
      pz      :     0.000032  p :     0.000050
      px      :     0.000009
      py      :     0.000009

  7 H s       :    -0.002575  s :    -0.002575
      pz      :    -0.000072  p :     0.000128
      px      :     0.000003
      py      :     0.000197

  8 H s       :    -0.002989  s :    -0.002989
      pz      :    -0.000056  p :    -0.000095
      px      :    -0.000017
      py      :    -0.000022

  9 H s       :     0.035194  s :     0.035194
      pz      :    -0.000617  p :    -0.001654
      px      :    -0.001233
      py      :     0.000196

 10 H s       :     0.070388  s :     0.070388
      pz      :     0.000755  p :    -0.001750
      px      :    -0.002596
      py      :     0.000092

 11 H s       :    -0.121202  s :    -0.121202
      pz      :     0.006605  p :     0.012005
      px      :     0.004092
      py      :     0.001308

 12 H s       :     0.027967  s :     0.027967
      pz      :    -0.000456  p :    -0.001673
      px      :    -0.000756
      py      :    -0.000461

 13 O s       :    -0.005795  s :    -0.005795
      pz      :     0.005150  p :     0.048787
      px      :     0.034984
      py      :     0.008653
      dz2     :    -0.000220  d :    -0.000865
      dxz     :    -0.000081
      dyz     :     0.000057
      dx2y2   :    -0.000146
      dxy     :    -0.000476

 14 H s       :    -0.001202  s :    -0.001202
      pz      :    -0.000091  p :    -0.000645
      px      :    -0.000180
      py      :    -0.000375



                     *******************************
                     * LOEWDIN POPULATION ANALYSIS *
                     *******************************

-------------------------------------------
LOEWDIN ATOMIC CHARGES AND SPIN POPULATIONS
-------------------------------------------
   0 C :   -0.008912    0.002000
   1 C :   -0.017194    0.004813
   2 C :   -0.046234    0.028617
   3 C :    0.067828    0.785598
   4 C :   -0.124364    0.025166
   5 H :    0.026325    0.000231
   6 H :    0.028535    0.000776
   7 H :    0.013585   -0.000481
   8 H :    0.017729   -0.000508
   9 H :    0.017345    0.015964
  10 H :    0.021816    0.035813
  11 H :   -0.007117    0.036545
  12 H :    0.034394    0.011794
  13 O :    0.032588    0.052081
  14 H :   -0.056324    0.001593

----------------------------------------------------
LOEWDIN REDUCED ORBITAL CHARGES AND SPIN POPULATIONS
----------------------------------------------------
CHARGE
  0 C s       :     2.684655  s :     2.684655
      pz      :     0.964406  p :     2.925613
      px      :     0.980182
      py      :     0.981026
      dz2     :     0.062937  d :     0.398644
      dxz     :     0.104067
      dyz     :     0.076354
      dx2y2   :     0.065003
      dxy     :     0.090283

  1 C s       :     2.685965  s :     2.685965
      pz      :     0.977950  p :     2.920025
      px      :     1.001098
      py      :     0.940976
      dz2     :     0.072941  d :     0.411204
      dxz     :     0.098109
      dyz     :     0.083726
      dx2y2   :     0.080773
      dxy     :     0.075655

  2 C s       :     2.681859  s :     2.681859
      pz      :     0.982643  p :     2.938305
      px      :     0.985860
      py      :     0.969802
      dz2     :     0.055832  d :     0.426070
      dxz     :     0.098404
      dyz     :     0.101733
      dx2y2   :     0.114697
      dxy     :     0.055404

  3 C s       :     2.755599  s :     2.755599
      pz      :     0.884157  p :     2.821160
      px      :     0.929436
      py      :     1.007568
      dz2     :     0.048067  d :     0.355413
      dxz     :     0.052738
      dyz     :     0.074667
      dx2y2   :     0.092979
      dxy     :     0.086961

  4 C s       :     2.675751  s :     2.675751
      pz      :     0.949780  p :     2.769268
      px      :     0.840202
      py      :     0.979287
      dz2     :     0.144384  d :     0.679345
      dxz     :     0.120404
      dyz     :     0.086056
      dx2y2   :     0.157385
      dxy     :     0.171117

  5 H s       :     0.788293  s :     0.788293
      pz      :     0.069799  p :     0.185382
      px      :     0.067120
      py      :     0.048463

  6 H s       :     0.786663  s :     0.786663
      pz      :     0.053374  p :     0.184802
      px      :     0.054614
      py      :     0.076814

  7 H s       :     0.799114  s :     0.799114
      pz      :     0.051058  p :     0.187301
      px      :     0.081475
      py      :     0.054768

  8 H s       :     0.792535  s :     0.792535
      pz      :     0.076874  p :     0.189737
      px      :     0.065382
      py      :     0.047480

  9 H s       :     0.794901  s :     0.794901
      pz      :     0.067804  p :     0.187754
      px      :     0.048356
      py      :     0.071594

 10 H s       :     0.788083  s :     0.788083
      pz      :     0.061899  p :     0.190100
      px      :     0.081490
      py      :     0.046712

 11 H s       :     0.804048  s :     0.804048
      pz      :     0.065054  p :     0.203069
      px      :     0.056736
      py      :     0.081279

 12 H s       :     0.788332  s :     0.788332
      pz      :     0.091043  p :     0.177273
      px      :     0.036142
      py      :     0.050088

 13 O s       :     3.300744  s :     3.300744
      pz      :     1.409001  p :     4.571540
      px      :     1.487719
      py      :     1.674820
      dz2     :     0.021983  d :     0.095128
      dxz     :     0.021406
      dyz     :     0.015815
      dx2y2   :     0.019688
      dxy     :     0.016236

 14 H s       :     0.658725  s :     0.658725
      pz      :     0.166053  p :     0.397599
      px      :     0.092666
      py      :     0.138880


SPIN
  0 C s       :     0.000399  s :     0.000399
      pz      :     0.000920  p :     0.003031
      px      :     0.001202
      py      :     0.000908
      dz2     :    -0.000282  d :    -0.001430
      dxz     :    -0.000380
      dyz     :    -0.000049
      dx2y2   :    -0.000625
      dxy     :    -0.000094

  1 C s       :     0.001331  s :     0.001331
      pz      :     0.000982  p :     0.006577
      px      :     0.000923
      py      :     0.004672
      dz2     :    -0.000846  d :    -0.003095
      dxz     :    -0.000417
      dyz     :    -0.000769
      dx2y2   :     0.000510
      dxy     :    -0.001573

  2 C s       :    -0.006875  s :    -0.006875
      pz      :    -0.016543  p :    -0.046492
      px      :    -0.023371
      py      :    -0.006577
      dz2     :     0.034107  d :     0.081984
      dxz     :     0.015142
      dyz     :     0.003460
      dx2y2   :     0.027078
      dxy     :     0.002196

  3 C s       :     0.035816  s :     0.035816
      pz      :     0.448507  p :     0.763027
      px      :     0.265752
      py      :     0.048768
      dz2     :    -0.001321  d :    -0.013245
      dxz     :    -0.004066
      dyz     :    -0.002275
      dx2y2   :    -0.003379
      dxy     :    -0.002203

  4 C s       :    -0.006470  s :    -0.006470
      pz      :    -0.006810  p :    -0.037276
      px      :    -0.004941
      py      :    -0.025525
      dz2     :     0.004992  d :     0.068912
      dxz     :     0.011467
      dyz     :     0.027231
      dx2y2   :     0.016275
      dxy     :     0.008947

  5 H s       :     0.000281  s :     0.000281
      pz      :     0.000040  p :    -0.000050
      px      :     0.000026
      py      :    -0.000117

  6 H s       :     0.000740  s :     0.000740
      pz      :     0.000064  p :     0.000036
      px      :     0.000052
      py      :    -0.000081

  7 H s       :    -0.000717  s :    -0.000717
      pz      :     0.000017  p :     0.000236
      px      :     0.000010
      py      :     0.000209

  8 H s       :    -0.000884  s :    -0.000884
      pz      :    -0.000067  p :     0.000376
      px      :     0.000292
      py      :     0.000151

  9 H s       :     0.017636  s :     0.017636
      pz      :     0.001089  p :    -0.001672
      px      :    -0.002407
      py      :    -0.000353

 10 H s       :     0.034138  s :     0.034138
      pz      :    -0.001160  p :     0.001675
      px      :     0.003228
      py      :    -0.000393

 11 H s       :    -0.033044  s :    -0.033044
      pz      :     0.038330  p :     0.069589
      px      :     0.022498
      py      :     0.008761

 12 H s       :     0.012383  s :     0.012383
      pz      :    -0.000395  p :    -0.000589
      px      :    -0.000271
      py      :     0.000077

 13 O s       :     0.006203  s :     0.006203
      pz      :     0.003308  p :     0.047328
      px      :     0.029985
      py      :     0.014035
      dz2     :    -0.000285  d :    -0.001450
      dxz     :    -0.000159
      dyz     :    -0.000324
      dx2y2   :    -0.000433
      dxy     :    -0.000249

 14 H s       :     0.000673  s :     0.000673
      pz      :     0.001074  p :     0.000920
      px      :     0.000191
      py      :    -0.000345



                      *****************************
                      * MAYER POPULATION ANALYSIS *
                      *****************************

  NA   - Mulliken gross atomic population
  ZA   - Total nuclear charge
  QA   - Mulliken gross atomic charge
  VA   - Mayer's total valence
  BVA  - Mayer's bonded valence
  FA   - Mayer's free valence

  ATOM       NA         ZA         QA         VA         BVA        FA
  0 C      6.1922     6.0000    -0.1922     4.1557     4.1557    -0.0000
  1 C      6.2183     6.0000    -0.2183     4.1759     4.1755     0.0004
  2 C      6.1597     6.0000    -0.1597     4.1922     4.1781     0.0141
  3 C      6.2840     6.0000    -0.2840     4.0407     3.1469     0.8938
  4 C      5.7911     6.0000     0.2089     4.0595     4.0478     0.0117
  5 H      0.9021     1.0000     0.0979     1.0180     1.0180     0.0000
  6 H      0.8637     1.0000     0.1363     0.9932     0.9932     0.0000
  7 H      0.8710     1.0000     0.1290     0.9857     0.9857     0.0000
  8 H      0.9111     1.0000     0.0889     1.0154     1.0154     0.0000
  9 H      0.8848     1.0000     0.1152     0.9906     0.9892     0.0013
 10 H      0.9006     1.0000     0.0994     1.0092     1.0039     0.0053
 11 H      0.8525     1.0000     0.1475     0.9896     0.9746     0.0150
 12 H      0.8746     1.0000     0.1254     0.9824     0.9816     0.0008
 13 O      8.5148     8.0000    -0.5148     1.7807     1.7787     0.0019
 14 H      0.7794     1.0000     0.2206     1.0039     1.0039     0.0001

  Mayer bond orders larger than 0.100000
B(  0-C ,  1-C ) :   1.0189 B(  0-C ,  4-C ) :   1.0979 B(  0-C ,  5-H ) :   0.9771 
B(  0-C ,  6-H ) :   0.9569 B(  1-C ,  2-C ) :   1.1140 B(  1-C ,  7-H ) :   0.9590 
B(  1-C ,  8-H ) :   0.9771 B(  2-C ,  3-C ) :   1.0543 B(  2-C ,  9-H ) :   0.9492 
B(  2-C , 10-H ) :   0.9496 B(  3-C ,  4-C ) :   1.0609 B(  3-C , 11-H ) :   0.9664 
B(  4-C , 12-H ) :   0.9475 B(  4-C , 13-O ) :   0.8047 B( 13-O , 14-H ) :   0.9512 


-------
TIMINGS
-------

Total SCF time: 0 days 0 hours 0 min 25 sec 

Total time                  ....      25.163 sec
Sum of individual times     ....      23.875 sec  ( 94.9%)

SCF preparation             ....       2.778 sec  ( 11.0%)
Fock matrix formation       ....      20.515 sec  ( 81.5%)
  Startup                   ....       0.010 sec  (  0.0% of F)
  Coulomb+Exchange Fock     ....      21.731 sec  (105.9% of F)
Diagonalization             ....       0.000 sec  (  0.0%)
Density matrix formation    ....       0.073 sec  (  0.3%)
Total Energy calculation    ....       0.027 sec  (  0.1%)
Population analysis         ....       0.026 sec  (  0.1%)
Orbital Transformation      ....       0.060 sec  (  0.2%)
Orbital Orthonormalization  ....       0.000 sec  (  0.0%)
DIIS solution               ....       0.229 sec  (  0.9%)
SOSCF solution              ....       0.165 sec  (  0.7%)
Finished LeanSCF after  25.2 sec

Maximum memory used throughout the entire LEANSCF-calculation: 21.3 MB


           ************************************************************
           *        Program running with 8 parallel MPI-processes     *
           *              working on a common directory               *
           ************************************************************

------------------------------------------------------------------------------
                         ORCA PROPERTY INTEGRAL CALCULATIONS
------------------------------------------------------------------------------

GBWName                                   ... sp.gbw
Number of atoms                           ...     15
Number of basis functions                 ...    297
Max core memory                           ...   9000 MB

Dipole integrals                          ... YES
Quadrupole integrals                      ...  NO
Linear momentum integrals                 ... YES
Angular momentum integrals                ... YES
Higher moments length integrals           ...  NO
Higher moments velocity integrals         ...  NO
Kinetic energy integrals                  ...  NO
GIAO right hand sides                     ...  NO
GIAO dipole derivative integrals          ...  NO
SOC integrals                             ...  NO
EPR diamagnetic integrals (GIAO)          ...  NO
EPR gauge integrals                       ...  NO
Field gradient integrals                  ...  NO (   0 nuclei)
Spin-dipole/Fermi contact integrals       ...  NO (   0 nuclei)
Contact density integrals                 ...  NO (   0 nuclei)
Nucleus-orbit integrals                   ...  NO (   0 nuclei)
Geometric perturbations                   ...  NO (  15 nuclei)

Choice of electric origin   ... Center of mass
Position of electric origin ... (  0.5501,  0.0198, -0.1662) 
Choice of magnetic origin   ... GIAO
Position of magnetic origin ... (  0.0000,  0.0000,  0.0000) 

Calculating integrals                     ... Electric Dipole (Length)     done (  0.0 sec)
Calculating integrals                     ... Linear Momentum              done (  0.0 sec)
Calculating integrals                     ... Angular Momentum  (ElOri)    done (  0.0 sec)

Property integrals calculated in   0.0 sec

Maximum memory used throughout the entire PROPINT-calculation: 19.1 MB


           ************************************************************
           *        Program running with 8 parallel MPI-processes     *
           *              working on a common directory               *
           ************************************************************


--------------------------------------------------------------------------------
                             ORCA-MATRIX DRIVEN CI
--------------------------------------------------------------------------------

--------------------------------
AUTOMATIC CHOICE OF INCORE LEVEL
--------------------------------

Memory available                           ...   4500.00 MB
Memory needed for S+T                      ...    219.84 MB
Memory needed for J+K                      ...    440.30 MB
Memory needed for DIIS                     ...   3077.74 MB
Memory needed for 3-ext                    ...   1828.13 MB
Memory needed for 4-ext                    ...  12085.99 MB
Memory needed for triples                  ...    507.81 MB
 -> Final InCoreLevel    ... 3
 -> check shows that triples correction can be computed


Wavefunction type
-----------------
Correlation treatment                      ...      CCSD     
Single excitations                         ... ON
Orbital optimization                       ... OFF
Calculation of Z vector                    ... OFF
Calculation of Brueckner orbitals          ... OFF
Perturbative triple excitations            ... ON
Calculation of F12 correction              ... ON
   Using RI for F12 correction             ... ON
Frozen core treatment                      ... chemical core (12 el)
Reference Wavefunction                     ... UHF
  Alpha-MOs occ    :     6 ...   23 ( 18 MO's/ 18 electrons)
  Beta-MOs occ     :     6 ...   22 ( 17 MO's/ 17 electrons)
  Alpha-MOs virt   :    24 ...  260 (237 MO's              )
  Beta-MOs virt    :    23 ...  260 (238 MO's              )
Number of AO's                             ...    261
Number of electrons                        ...     47
Number of correlated electrons             ...     35

Algorithmic settings
--------------------
Integral transformation                    ... Separate K and J transformations
K(C) Formation                             ... AO-EXCHANGE STORED
Maximum number of iterations               ...        50
Convergence tolerance (max. residuum)      ... 2.500e-05
Level shift for amplitude update           ... 2.000e-01
Maximum number of DIIS vectors             ...         7
DIIS turned on at iteration                ...         0
Damping before turning on DIIS             ...     0.500
Damping after turning on DIIS              ...     0.000
Pair specific amplitude update             ... OFF
Natural orbital iterations                 ... OFF
Perturbative natural orbital generation    ... OFF
Printlevel                                 ... 2

Memory handling:
----------------
Maximum memory for working arrays          ...   4500 MB
Data storage in matrix containers          ... UNCOMPRESSED
Data type for integral storage             ... DOUBLE
In-Core Storage of quantities:
   Amplitudes+Sigma Vector      ... YES
   J+K operators                ... YES
   DIIS vectors                 ... YES
   3-external integrals         ... NO
   4-external integrals         ... NO


Initializing the integral package          ... done
Warning: reference  - re-canonicalizations have been set to INT 1 VIRT 1
Fock densities were made 
Making Fock matrix and reference energy:

--------------------------
UNRESTRICTED FOCK OPERATOR
--------------------------

Recanonicalizing the internal orbitals
Recanonicalizing the virtual orbitals
Storing new orbitals
Time needed for Fock operator              ...            2.743 sec
Reference energy                           ...   -269.483431558

-------------------------
SHARK HALF TRANSFORMATION
-------------------------

Number of basis functions                ...    261
Number of operators                      ...      2
   Operator  0:    6-  23

   Operator  1:    6-  22

Integral generator used                  ... SHARK
Contraction scheme used                  ... SEGMENTED CONTRACTION
MaxCore in resort                        ...   9000 MB

Half transformed integrals for op=   0   ... sp.SHARK_MNPQ0.tmp
Resorted half transformed integrals      ... sp._PQMN_0.tmp
Half transformed integrals for op=   1   ... sp.SHARK_MNPQ1.tmp
Resorted half transformed integrals      ... sp._PQMN_1.tmp
Starting integral generation + half trafo... 
Half trafo (segmented) done. Total time =  5.0 sec. integrals=  3.9 sec trafo=  1.0 sec
Starting integral resorting              ... done (  0.3 sec)

SHARK half integral transformation done. Total time =  5.3 sec.

----------------------------------
J-TRAFO SECOND HALF TRANSFORMATION
----------------------------------

Generate (ij|kl)                        ... NO
Generate (ij|ka)                        ... YES
Generate (ij|ab)                        ... YES
Generate (ia|bc)                        ... NO
Generate (ab|cd)                        ... NO
Generate (pq|rs)                        ... NO

Number of operators                     ... 2
   Operator 0                           ...    6-  23 to   24- 260
   PQMN-Container name                  ... sp._PQMN_0.tmp
   IJKA-Container name    op=0,0        ... sp._IJKA_0.tmp
   IJAB-Container name    op=0,0        ... sp._IJAB_0.tmp
   IJKA-Container name    op=0,1        ... sp._IJKA_2.tmp
   IJAB-Container name    op=0,1        ... sp._IJAB_2.tmp
   Operator 1                           ...    6-  22 to   23- 260
   PQMN-Container name                  ... sp._PQMN_1.tmp
   IJKA-Container name    op=1,0        ... sp._IJKA_3.tmp
   IJAB-Container name    op=1,0        ... sp._IJAB_3.tmp
   IJKA-Container name    op=1,1        ... sp._IJKA_1.tmp
   IJAB-Container name    op=1,1        ... sp._IJAB_1.tmp

Starting integral transformations       ... done
Completed Coulomb integral formation in   0.2 sec


-------------------------
SHARK HALF TRANSFORMATION (Exchange order)
-------------------------

Number of basis functions                   ...    261
Number of operators                         ...      2
   Operator  0:    6-  23 (p-index in (p*|q*))
   Operator  0:    6- 260 (q-index in (p*|q*)
   Operator  1:    6-  22 (p-index in (p*|q*))
   Operator  1:    6- 260 (q-index in (p*|q*)
Integral generator used                     ... SHARK
Contraction scheme used                     ... SEGMENTED CONTRACTION
MaxCore in resort                           ...   9000 MB

Half transformed integrals for op=   0      ... sp.SHARK_MNPQ0.tmp
Resorted half transformed integrals         ... sp._PMQN_0.tmp
Half transformed integrals for op=   1      ... sp.SHARK_MNPQ1.tmp
Resorted half transformed integrals         ... sp._PMQN_1.tmp
Half transformed integrals for op=0/1       ... sp.SHARK_MNPQ01.tmp
Resorted half transformed integrals         ... sp._PMQN_2.tmp
Half transformed integrals for op=1/0       ... sp.SHARK_MNPQ10.tmp
Resorted half transformed integrals         ... sp._PMQN_3.tmp

Half trafo (segmented) done. Total time = 27.4 sec. integrals=  5.7 sec trafo= 11.7 sec

----------------------
SHARK INTEGRAL SORTING (Exchange)
----------------------

Input container                             ... sp.SHARK_MNPQ0.tmp
Output container                            ... sp._PMQN_0.tmp
Range of AO-indices                         ...    0 -  260
Range of bra indices i                      ...    6 -   23
Range of ket indices j                      ...    6 -  260
Symmetric i,j range                         ... NO
Number of (i,j) pairs generated             ... 4590
Max Core memory in MB                       ...   9000

Available core memory in MB                 ...   8899.33
MB needed for one item                      ...      0.52
Fixed MB needed                             ...      0.00
Number of items                             ...       574
Number of batches                           ...         1
Items treated per batch                     ...       574
Batch   0                                   ...      0-   573 (   574)
   => Closing output file and leaving

----------------------
SHARK INTEGRAL SORTING (Exchange)
----------------------

Input container                             ... sp.SHARK_MNPQ1.tmp
Output container                            ... sp._PMQN_1.tmp
Range of AO-indices                         ...    0 -  260
Range of bra indices i                      ...    6 -   22
Range of ket indices j                      ...    6 -  260
Symmetric i,j range                         ... NO
Number of (i,j) pairs generated             ... 4335
Max Core memory in MB                       ...   9000

Available core memory in MB                 ...   8900.12
MB needed for one item                      ...      0.52
Fixed MB needed                             ...      0.00
Number of items                             ...       542
Number of batches                           ...         1
Items treated per batch                     ...       542
Batch   0                                   ...      0-   541 (   542)
   => Closing output file and leaving

----------------------
SHARK INTEGRAL SORTING (Exchange)
----------------------

Input container                             ... sp.SHARK_MNPQ01.tmp
Output container                            ... sp._PMQN_2.tmp
Range of AO-indices                         ...    0 -  260
Range of bra indices i                      ...    6 -   23
Range of ket indices j                      ...    6 -  260
Symmetric i,j range                         ... NO
Number of (i,j) pairs generated             ... 4590
Max Core memory in MB                       ...   9000

Available core memory in MB                 ...   8900.90
MB needed for one item                      ...      0.52
Fixed MB needed                             ...      0.00
Number of items                             ...       574
Number of batches                           ...         1
Items treated per batch                     ...       574
Batch   0                                   ...      0-   573 (   574)
   => Closing output file and leaving

----------------------
SHARK INTEGRAL SORTING (Exchange)
----------------------

Input container                             ... sp.SHARK_MNPQ10.tmp
Output container                            ... sp._PMQN_3.tmp
Range of AO-indices                         ...    0 -  260
Range of bra indices i                      ...    6 -   22
Range of ket indices j                      ...    6 -  260
Symmetric i,j range                         ... NO
Number of (i,j) pairs generated             ... 4335
Max Core memory in MB                       ...   9000

Available core memory in MB                 ...   8901.69
MB needed for one item                      ...      0.52
Fixed MB needed                             ...      0.00
Number of items                             ...       542
Number of batches                           ...         1
Items treated per batch                     ...       542
Batch   0                                   ...      0-   541 (   542)
   => Closing output file and leaving
done (  4.5 sec)

SHARK half integral transformation done. Total time = 32.0 sec.

----------------------------------
K-TRAFO SECOND HALF TRANSFORMATION
----------------------------------

Generate (ik|jl)                        ... YES
Generate (ik|ja)                        ... YES
Generate (ia|jb)                        ... YES
Generate (ib|ac)                        ... YES
Generate (ac|bd)                        ... NO
Generate (pr|qs)                        ... NO

Number of operators                     ... 2
   Operator 0                           ...    6-  23 to   24- 260
   Operator 1                           ...    6-  22 to   23- 260

Starting integral transformations       ... done
Completed Exchange integral formation in   3.4 sec


------------------------------
Initializing F12 data (SHARK)
------------------------------

Mapping basis set                  ... done
Dimension of the orbital basis set  = 261
Dimension of the CABS basis set     = 927
Dimension of the AUX basis set      = 756
Threshold for CABS orthogonalization = 1.000e-08
Test shows that OBS-bases are identical for ORCA and SHARK (good)
Test shows that CABS-bases are identical for ORCA and SHARK (good)
Will use an exponential correlation factor -Exp(-gamma r12)/gamma (gamma= 0.900) fit to 6 Gaussians 
Correlation factor:   
  NGauss  :          6      
  Gaussian expansion: 
    a( 0)=    0.1948458954898069  d( 0)=   -0.3837757042467722 
    a( 1)=    0.9387038354476187  d( 1)=   -0.3334018173527373 
    a( 2)=    3.4610351718196344  d( 2)=   -0.1753946778698117 
    a( 3)=   11.7049811259564009  d( 3)=   -0.1006409547412648 
    a( 4)=   44.2276114110074730  d( 4)=   -0.0614475918190023 
    a( 5)=  245.3721697105246733  d( 5)=   -0.0379425511812079 
Calculating one-electron matrices                       ... (SHARK)done (      0.1 sec)
Calculating pre-screening matrices:                     ... 
     (LIBINT-0)       .... 1/r12 done          (      0.1 sec)
     (LIBINT-1)       .... f12/r12 done        (      0.1 sec)
     (LIBINT-2)       .... f12 done            (      0.0 sec)
     (LIBINT-3)       .... f12^2 done          (      0.1 sec)
     (LIBINT-4)       .... [f12,[T1,f12]] done (      0.1 sec)
                                                        ... done (      0.3 sec)
Making CABS spaces                                      ... done (      0.1 sec)
Calculating 2-index 2-center F12 integrals              ... 
Two index explicit correlation integrals  op=0          ...(SHARK-0) done (      0.0 sec)  Metric   done (      0.0 sec)
Two index explicit correlation integrals  op=1          ...(SHARK-1) done (      0.0 sec)  Metric   done (      0.0 sec)
Two index explicit correlation integrals  op=2          ...(SHARK-2) done (      0.0 sec)  Metric   done (      0.0 sec)
Two index explicit correlation integrals  op=3          ...(SHARK-3) done (      0.0 sec)  Metric   done (      0.0 sec)
Two index explicit correlation integrals  op=4          ...(SHARK-4) done (      0.0 sec)  Metric   done (      0.1 sec)
                                                                     done (      0.2 sec)

-----------------------
SPIN UNRESTRICTED GUESS
-----------------------

Spin-components of the MP2 energy:
EMP2(aa)=     -0.127359433
EMP2(bb)=     -0.114049068
EMP2(ab)=     -0.740052699

Initial guess performed in     0.499 sec
E(0)                                       ...   -269.483431558
E(MP2)                                     ...     -0.981461200
Initial E(tot)                             ...   -270.464892758
<T|T>                                      ...      0.300639220
Number of pairs included                   ... 595

------------------------------------------------
                  UHF COUPLED CLUSTER ITERATIONS
------------------------------------------------

Number of amplitudes to be optimized       ...     25413036

Iter       E(tot)           E(Corr)          Delta-E          Residual     Time      <S|S>**1/2
  0   -270.464892763     -0.981461205     -0.000000004      0.015504555   69.60      0.000045833
                           *** Turning on DIIS ***
  1   -270.485291935     -1.001860377     -0.020399172      0.002124258   70.85      0.047475575
  2   -270.509439140     -1.026007582     -0.024147205      0.001818612   71.35      0.057254192
  3   -270.515420395     -1.031988837     -0.005981255      0.000891729   71.70      0.067054415
  4   -270.516550730     -1.033119172     -0.001130335      0.000605065   72.07      0.071129814
  5   -270.516723179     -1.033291621     -0.000172449      0.000297432   72.52      0.073516258
  6   -270.516813053     -1.033381495     -0.000089874      0.000167014   72.88      0.074982925
  7   -270.516832320     -1.033400762     -0.000019267      0.000101139   72.98      0.075558744
  8   -270.516834683     -1.033403125     -0.000002363      0.000065784   72.79      0.075732449
  9   -270.516834691     -1.033403132     -0.000000007      0.000035288   72.80      0.075805649
 10   -270.516835394     -1.033403836     -0.000000704      0.000015301   73.07      0.075828611
               --- The Coupled-Cluster iterations have converged ---
--------------------
CC F12/RI CORRECTION
--------------------

Doing density matrix                                    ... done (      0.0 sec)
Calculating Coulomb operators
       .... OBS/OBS done        (      1.2 sec, SHARK-SC)
       .... CABS/OBS done       (     14.5 sec, LIBINT  )
[...]
      dz2     :     0.077627  d :     0.428031
      dxz     :     0.099700
      dyz     :     0.086850
      dx2y2   :     0.083875
      dxy     :     0.079979
  2 C s       :     2.686509  s :     2.686509
      pz      :     0.979686  p :     2.927790
      px      :     0.982603
      py      :     0.965501
      dz2     :     0.061495  d :     0.441811
      dxz     :     0.099894
      dyz     :     0.103290
      dx2y2   :     0.115749
      dxy     :     0.061383
  3 C s       :     2.760284  s :     2.760284
      pz      :     0.881161  p :     2.804755
      px      :     0.921907
      py      :     1.001687
      dz2     :     0.053582  d :     0.378815
      dxz     :     0.057661
      dyz     :     0.078960
      dx2y2   :     0.097111
      dxy     :     0.091499
  4 C s       :     2.683194  s :     2.683194
      pz      :     0.953427  p :     2.779275
      px      :     0.850349
      py      :     0.975498
      dz2     :     0.146104  d :     0.693409
      dxz     :     0.122383
      dyz     :     0.090513
      dx2y2   :     0.160065
      dxy     :     0.174344
  5 H s       :     0.771833  s :     0.771833
      pz      :     0.073423  p :     0.196822
      px      :     0.071301
      py      :     0.052098
  6 H s       :     0.770862  s :     0.770862
      pz      :     0.056994  p :     0.195574
      px      :     0.058085
      py      :     0.080496
  7 H s       :     0.782837  s :     0.782837
      pz      :     0.054734  p :     0.198086
      px      :     0.084943
      py      :     0.058408
  8 H s       :     0.776055  s :     0.776055
      pz      :     0.080567  p :     0.200900
      px      :     0.069357
      py      :     0.050977
  9 H s       :     0.777092  s :     0.777092
      pz      :     0.071317  p :     0.198540
      px      :     0.051908
      py      :     0.075315
 10 H s       :     0.768680  s :     0.768680
      pz      :     0.065408  p :     0.201575
      px      :     0.085987
      py      :     0.050180
 11 H s       :     0.789583  s :     0.789583
      pz      :     0.068005  p :     0.212828
      px      :     0.059898
      py      :     0.084926
 12 H s       :     0.771652  s :     0.771652
      pz      :     0.094721  p :     0.189218
      px      :     0.040381
      py      :     0.054116
 13 O s       :     3.301835  s :     3.301835
      pz      :     1.393185  p :     4.493617
      px      :     1.457425
      py      :     1.643007
      dz2     :     0.028291  d :     0.127630
      dxz     :     0.027667
      dyz     :     0.022656
      dx2y2   :     0.026347
      dxy     :     0.022670
 14 H s       :     0.656214  s :     0.656214
      pz      :     0.169193  p :     0.410000
      px      :     0.095468
      py      :     0.145338

SPIN
  0 C s       :     0.000394  s :     0.000394
      pz      :     0.000792  p :     0.001907
      px      :     0.000745
      py      :     0.000370
      dz2     :    -0.000127  d :     0.000197
      dxz     :    -0.000153
      dyz     :     0.000301
      dx2y2   :    -0.000027
      dxy     :     0.000203
  1 C s       :     0.001155  s :     0.001155
      pz      :     0.000650  p :     0.004551
      px      :     0.000597
      py      :     0.003303
      dz2     :    -0.000570  d :    -0.000987
      dxz     :    -0.000164
      dyz     :    -0.000225
      dx2y2   :     0.000834
      dxy     :    -0.000862
  2 C s       :    -0.003853  s :    -0.003853
      pz      :    -0.006453  p :    -0.021056
      px      :    -0.011276
      py      :    -0.003326
      dz2     :     0.032374  d :     0.076152
      dxz     :     0.013705
      dyz     :     0.002437
      dx2y2   :     0.026032
      dxy     :     0.001603
  3 C s       :     0.025748  s :     0.025748
      pz      :     0.412849  p :     0.691219
      px      :     0.242537
      py      :     0.035833
      dz2     :     0.001568  d :     0.001140
      dxz     :     0.000183
      dyz     :     0.000309
      dx2y2   :    -0.000900
      dxy     :    -0.000020
  4 C s       :    -0.002649  s :    -0.002649
      pz      :    -0.001907  p :    -0.012824
      px      :     0.002793
      py      :    -0.013710
      dz2     :     0.004275  d :     0.062602
      dxz     :     0.011330
      dyz     :     0.025100
      dx2y2   :     0.015603
      dxy     :     0.006294
  5 H s       :     0.000678  s :     0.000678
      pz      :     0.000041  p :     0.000024
      px      :     0.000021
      py      :    -0.000039
  6 H s       :     0.001330  s :     0.001330
      pz      :     0.000069  p :    -0.000018
      px      :     0.000005
      py      :    -0.000092
  7 H s       :    -0.000329  s :    -0.000329
      pz      :     0.000027  p :     0.000225
      px      :     0.000039
      py      :     0.000159
  8 H s       :    -0.000584  s :    -0.000584
      pz      :    -0.000069  p :     0.000496
      px      :     0.000476
      py      :     0.000088
  9 H s       :     0.016411  s :     0.016411
      pz      :     0.001966  p :     0.000474
      px      :    -0.001521
      py      :     0.000030
 10 H s       :     0.034013  s :     0.034013
      pz      :    -0.000582  p :     0.004584
      px      :     0.005219
      py      :    -0.000053
 11 H s       :    -0.019060  s :    -0.019060
      pz      :     0.036363  p :     0.063904
      px      :     0.021339
      py      :     0.006203
 12 H s       :     0.010918  s :     0.010918
      pz      :     0.000105  p :     0.001426
      px      :     0.000349
      py      :     0.000972
 13 O s       :     0.007089  s :     0.007089
      pz      :     0.002350  p :     0.050545
      px      :     0.029343
      py      :     0.018853
      dz2     :    -0.000131  d :    -0.000187
      dxz     :     0.000109
      dyz     :    -0.000142
      dx2y2   :    -0.000119
      dxy     :     0.000096
 14 H s       :     0.002857  s :     0.002857
      pz      :     0.001475  p :     0.001510
      px      :     0.000286
      py      :    -0.000251


                      *****************************
                      * MAYER POPULATION ANALYSIS *
                      *****************************

  NA   - Mulliken gross atomic population
  ZA   - Total nuclear charge
  QA   - Mulliken gross atomic charge
  VA   - Mayer's total valence
  BVA  - Mayer's bonded valence
  FA   - Mayer's free valence

  ATOM       NA         ZA         QA         VA         BVA        FA
  0 C      6.2574     6.0000    -0.2574     4.2115     3.8628     0.3487
  1 C      6.2868     6.0000    -0.2868     4.2301     3.8795     0.3506
  2 C      6.2251     6.0000    -0.2251     4.2571     3.9043     0.3528
  3 C      6.3022     6.0000    -0.3022     4.1167     3.0194     1.0972
  4 C      5.8990     6.0000     0.1010     4.1590     3.8210     0.3381
  5 H      0.8739     1.0000     0.1261     1.0128     0.9437     0.0691
  6 H      0.8321     1.0000     0.1679     0.9793     0.9135     0.0658
  7 H      0.8386     1.0000     0.1614     0.9748     0.9080     0.0668
  8 H      0.8809     1.0000     0.1191     1.0118     0.9426     0.0691
  9 H      0.8517     1.0000     0.1483     0.9821     0.9129     0.0691
 10 H      0.8668     1.0000     0.1332     1.0032     0.9292     0.0739
 11 H      0.8312     1.0000     0.1688     0.9830     0.9122     0.0708
 12 H      0.8410     1.0000     0.1590     0.9695     0.9018     0.0677
 13 O      8.4068     8.0000    -0.4068     2.1313     1.7203     0.4111
 14 H      0.8065     1.0000     0.1935     1.0452     0.9766     0.0686

  Mayer bond orders larger than 0.100000
B(  0-C ,  1-C ) :   0.9442 B(  0-C ,  4-C ) :   1.0234 B(  0-C ,  5-H ) :   0.9082 
B(  0-C ,  6-H ) :   0.8928 B(  1-C ,  2-C ) :   1.0344 B(  1-C ,  7-H ) :   0.8961 
B(  1-C ,  8-H ) :   0.9100 B(  2-C ,  3-C ) :   1.0110 B(  2-C ,  9-H ) :   0.8825 
B(  2-C , 10-H ) :   0.8779 B(  3-C ,  4-C ) :   1.0244 B(  3-C , 11-H ) :   0.9070 
B(  4-C , 12-H ) :   0.8859 B(  4-C , 13-O ) :   0.7616 B( 13-O , 14-H ) :   0.9102 




--------------------------------------------------------------------------------
                                    TIMINGS
--------------------------------------------------------------------------------


Total execution time                   ...     1728.676 sec

Fock Matrix Formation                  ...        2.743 sec (  0.2%)
Initial Guess                          ...        0.499 sec (  0.0%)
DIIS Solver                            ...       18.002 sec (  1.0%)
State Vector Update                    ...        0.540 sec (  0.0%)
Sigma-vector construction              ...      774.066 sec ( 44.8%)
  <0|H|D>                              ...        0.142 sec (  0.0% of sigma)
  <D|H|D>(0-ext Fock)                  ...        1.306 sec (  0.2% of sigma)
  <D|H|D>(0-ext)                       ...       11.741 sec (  1.5% of sigma)
  <D|H|D>(2-ext Fock)                  ...        0.905 sec (  0.1% of sigma)
  <D|H|D>(2-ext)                       ...       66.562 sec (  8.6% of sigma)
  <D|H|D>(4-ext)                       ...      293.878 sec ( 38.0% of sigma)
  <S|H|0>                              ...      224.966 sec ( 29.1% of sigma)
  <S|H|S>                              ...        0.004 sec (  0.0% of sigma)
  <S|H|D>(1-ext)                       ...        0.262 sec (  0.0% of sigma)
  <D|H|S>(1-ext)                       ...        1.642 sec (  0.2% of sigma)
  Fock-dressing                        ...       25.150 sec (  3.2% of sigma)
  (ik|jl)-dressing                     ...       28.661 sec (  3.7% of sigma)
  (ij|ab),(ia|jb)-dressing             ...      110.851 sec ( 14.3% of sigma)
  Pair energies                        ...        0.214 sec (  0.0% of sigma)
Total Time for computing (T)           ...      715.708 sec ( 41.4% of ALL)
  I/O of integral and amplitudes       ...       55.469 sec (  7.8% of (T))
  External N**7 contributions          ...      445.688 sec ( 62.3% of (T))
  Internal N**7 contributions          ...       42.642 sec (  6.0% of (T))
  N**6 triples energy contributions    ...      171.328 sec ( 23.9% of (T))


Maximum memory used throughout the entire MDCI-calculation: 7240.2 MB

-------------------------   --------------------
FINAL SINGLE POINT ENERGY      -270.711081304611
-------------------------   --------------------



           ************************************************************
           *        Program running with 8 parallel MPI-processes     *
           *              working on a common directory               *
           ************************************************************

------------------------------------------------------------------------------
                              ORCA PROPERTY CALCULATIONS
------------------------------------------------------------------------------

GBWName                                 ... sp.gbw
Number of atoms                         ...     15
Number of basis functions               ...    297
Max core memory                         ...   9000 MB

Electric properties:
Dipole moment                           ... YES
Quadrupole moment                       ...  NO
Static polarizability (Dipole/Dipole)   ...  NO
Static polarizability (Dipole/Quad.)    ...  NO
Static polarizability (Quad./Quad.)     ...  NO
Static polarizability (Velocity)        ...  NO
Static hyperpolarizability              ...  NO

Atomic electric properties:
Dipole moment                           ...  NO
Quadrupole moment                       ...  NO
Static polarizability                   ...  NO

Choice of electric origin               ... Center of mass
Position of electric origin             ...     0.550115     0.019825    -0.166195

General magnetic properties:
Magnetizability                         ...  NO

EPR properties:
g-Tensor (aka g-matrix)                 ...  NO
Zero-Field splitting spin-orbit         ...  NO
Zero-field splitting spin-spin          ...  NO
Hyperfine couplings                     ...  NO (   0 nuclei)
Quadrupole couplings                    ...  NO (   0 nuclei)
Contact density                         ...  NO (   0 nuclei)

NMR properties:
Chemical shifts                         ...  NO (   0 nuclei)
Spin-rotation constants                 ...  NO (   0 nuclei)
Spin-spin couplings                     ...  NO (   0 nuclei,    0 pairs)

Choice of magnetic origin               ... GIAO
Position of magnetic origin             ...     0.000000     0.000000     0.000000

Properties with geometric perturbations:
SCF Hessian                             ...  NO
IR spectrum                             ...  NO
VCD spectrum                            ...  NO
X-ray spectroscopy properties:
SCF XES/XAS/RIXS spectra                ...  NO

SCF SOC stabilization energy            ...  NO
Diagonal Born-Oppenheimer correction    ...  NO

-------------
DIPOLE MOMENT
-------------

Method             : SCF
Type of density    : Electron Density
Multiplicity       :   2
Irrep              :   0
Energy             :  -269.4834315600076025 Eh
Basis              : AO
                                X                 Y                 Z
Electronic contribution:      3.076290016      -0.255813244      -1.087103306
Nuclear contribution   :     -3.799004690      -0.057521412       1.323544575
                        -----------------------------------------
Total Dipole Moment    :     -0.722714674      -0.313334656       0.236441269
                        -----------------------------------------
Magnitude (a.u.)       :      0.822435153
Magnitude (Debye)      :      2.090464026



--------------------
Rotational spectrum 
--------------------
 
Rotational constants in cm-1:             0.194180             0.112158             0.088904 
Rotational constants in MHz :          5821.373950          3362.421120          2665.277629 

Dipole components along the rotational axes: 
x,y,z [a.u.] :    -0.812278    -0.121972    -0.041562 
x,y,z [Debye]:    -2.064646    -0.310028    -0.105643 

 

-------------
DIPOLE MOMENT
-------------

Method             : MDCI(SD)
Type of density    : Electron Density
Multiplicity       :   2
Level              : Linearized density
Irrep              :   0
Energy             :     0.0000000000000000 Eh
Basis              : AO
                                X                 Y                 Z
Electronic contribution:      3.114236816      -0.227926065      -1.093812853
Nuclear contribution   :     -3.799004690      -0.057521412       1.323544575
                        -----------------------------------------
Total Dipole Moment    :     -0.684767874      -0.285447477       0.229731722
                        -----------------------------------------
Magnitude (a.u.)       :      0.776636316
Magnitude (Debye)      :      1.974052635



--------------------
Rotational spectrum 
--------------------
 
Rotational constants in cm-1:             0.194180             0.112158             0.088904 
Rotational constants in MHz :          5821.373950          3362.421120          2665.277629 

Dipole components along the rotational axes: 
x,y,z [a.u.] :    -0.768613    -0.103107    -0.042028 
x,y,z [Debye]:    -1.953660    -0.262077    -0.106826 

 

Dipole moment calculation done in   0.0 sec 

Maximum memory used throughout the entire PROP-calculation: 17.3 MB

--------------------------------
SUGGESTED CITATIONS FOR THIS RUN
--------------------------------

Below you find a list of papers that are relevant to this ORCA run
We neither can nor want to force you to cite these papers, but we appreciate if you do
You receive ORCA, which is the product of decades of hard work by many enthusiastic individuals, for free
The only thing we kindly ask in return is that you cite our papers,
We deeply appreciate it, if you show your appreciation for ORCA by not just citing the generic ORCA reference.

Please note that relegating all ORCA citations to the supporting information does *not* help us.
SI sections are not indexed - citations you put there will not count into any citation statistics
But we need these citations in order to attract the funding resources that allow us to do what we are doing

Therefore, if you are a happy ORCA user, please consider citing a few of the papers listed below in the main body of your paper

In addition to the list printed below, the program has created the file sp.bibtex that contains the list in bibtex format
You can import this file easily into all common literature databanks and citation aid programs

It goes without saying that in many instances, there are alternative algorithms to achieve similar
results as the ones you have gotten from ORCA. It is, of course, also the case that in some instances
ORCA just re-implements algorithms worked out by others. We are fully aware of that and we are also
fully appreciative of our colleagues work. Hence this citation list should not be read as indicating
that the listed papers, which are focused on our own work, are the only ones worth citing. It simply
meant to make it easier for users to cite ORCA specific papers. It is not a substitute for doing your
own literature research and citing the relevant literature in a scientifically appropriate manner.

List of essential papers. We consider these as the minimum necessary citations

  1. Neese, F.
     Software update: the ORCA program system, version 6.0
     WIRES Comput. Molec. Sci. 2025 15(1), e70019
     doi.org/10.1002/wcms.70019

List of papers to cite with high priority. The work reported in these papers was absolutely
necessary for this run to complete.
Our perspective: the developers of density functionals and basis sets usually get cited in chemistry papers
Good! But without the algorithms to do something with them, the functionals or basis sets would not do anything.
Hence, in our opinion, the algorithm design and method developments papers are equally worthy of getting cited

  1. Pavosevic, F.; Neese, F.; Valeev, E.F.
     Geminal-spanning orbitals make explicitly correlated reduced-scaling coupled-cluster methods robust, yet simple
     J. Chem. Phys. 2014 141 , 
     doi.org/10.1063/1.4890002
  2. Neese, F.
     The SHARK Integral Generation and Digestion System
     J. Comp. Chem. 2022 44(3), 381
     doi.org/10.1002/jcc.26942

List of suggested additional citations. These are papers that are important in the 'surrounding' of 
of this run, or papers that preceded the highly important papers. If you like your results we are grateful for a citation.

  1. Neese, F.
     The ORCA program system
     WIRES Comput. Molec. Sci. 2012 2(1), 73-78
     doi.org/10.1002/wcms.81
  2. Neese, F.
     Software update: the ORCA program system, version 4.0
     WIRES Comput. Molec. Sci. 2018 8(1), 1-6
     doi.org/10.1002/wcms.1327
  3. Neese, F.; Wennmohs, F.; Becker, U.; Riplinger, C.
     The ORCA quantum chemistry program package
     J. Chem. Phys. 2020 152(22), 224108
     doi.org/10.1063/5.0004608
  4. Neese, F.
     Software update: The ORCA program system—Version 5.0
     WIRES Comput. Molec. Sci. 2022 12(1), e1606
     doi.org/10.1002/wcms.1606

List of optional additional citations

  1. Neese, F.
     Approximate second-order SCF convergence for spin unrestricted wavefunctions
     Chem. Phys. Lett. 2000 325(1-3), 93-98
     doi.org/10.1016/s0009-2614(00)00662-x

Timings for individual modules:

Sum of individual times          ...     1773.295 sec (=  29.555 min)
Startup calculation              ...        4.161 sec (=   0.069 min)   0.2 %
SCF iterations                   ...       28.529 sec (=   0.475 min)   1.6 %
Property integrals               ...        3.166 sec (=   0.053 min)   0.2 %
Property calculations            ...        3.065 sec (=   0.051 min)   0.2 %
MDCI module                      ...     1734.374 sec (=  28.906 min)  97.8 %
                             ****ORCA TERMINATED NORMALLY****
TOTAL RUN TIME: 0 days 0 hours 29 minutes 36 seconds 128 msec
