
                                 *****************
                                 * O   R   C   A *
                                 *****************

                                            #,                                       
                                            ###                                      
                                            ####                                     
                                            #####                                    
                                            ######                                   
                                           ########,                                 
                                     ,,################,,,,,                         
                               ,,#################################,,                 
                          ,,##########################################,,             
                       ,#########################################, ''#####,          
                    ,#############################################,,   '####,        
                  ,##################################################,,,,####,       
                ,###########''''           ''''###############################       
              ,#####''   ,,,,##########,,,,          '''####'''          '####       
            ,##' ,,,,###########################,,,                        '##       
           ' ,,###''''                  '''############,,,                           
         ,,##''                                '''############,,,,        ,,,,,,###''
      ,#''                                            '''#######################'''  
     '                                                          ''''####''''         
             ,#######,   #######,   ,#######,      ##                                
            ,#'     '#,  ##    ##  ,#'     '#,    #''#        ,####,    ,#,          
            ##       ##  ##   ,#'  ##            #'  '#       #'       ,# #          
            ##       ##  #######   ##           ,######,      #####,      #          
            '#,     ,#'  ##    ##  '#,     ,#' ,#      #,     #,   #      #          
             '#######'   ##     ##  '#######'  #'      '#     '####' #    #          



                #########################################################
                #                        -***-                          #
                #          Department of theory and spectroscopy        #
                #                                                       #
                #                      Frank Neese                      #
                #                                                       #
                #     Directorship, Architecture, Infrastructure        #
                #                    SHARK, DRIVERS                     #
                #        Core code/Algorithms in most modules           #
                #                                                       #
                #        Max Planck Institute fuer Kohlenforschung      #
                #                Kaiser Wilhelm Platz 1                 #
                #                 D-45470 Muelheim/Ruhr                 #
                #                      Germany                          #
                #                                                       #
                #                  All rights reserved                  #
                #                        -***-                          #
                #########################################################


                         Program Version 6.1.1  -  RELEASE   -
                                (GIT: $487d211c$)
                          ($2025-11-21 10:33:24 +0100$)


 With contributions from (in alphabetic order):
[Max-Planck-Institut fuer Kohlenforschung]                               
  Daniel Aravena         : Magnetic Suceptibility                        
  Michael Atanasov       : Ab Initio Ligand Field Theory (pilot matlab implementation)
  Alexander A. Auer      : GIAO ZORA, VPT2 properties, NMR spectrum      
  Ute Becker             : All parallelization in ORCA, NUMFREQ, NUMCALC 
  Giovanni Bistoni       : ED, misc. LED, open-shell LED, HFLD           
  Dmytro Bykov           : pre 5.0 version of the SCF Hessian            
  Marcos Casanova-Páez   : Triplet and SCS-CIS(D). UHF-(DLPNO)-IP/EA/STEOM-CCSD. UHF-CVS-IP/STEOM-CCSD   
  Vijay G. Chilkuri      : MRCI spin determinant printing, contributions to CSF-ICE 
  Pauline Colinet        : FMM embedding                                 
  Dipayan Datta          : RHF DLPNO-CCSD density                        
  Achintya Kumar Dutta   : EOM-CC, STEOM-CC                              
  Nicolas Foglia         : Exact transition moments, OPA infrastructure, MCD improvements    
  Dmitry Ganyushin       : Spin-Orbit,Spin-Spin,Magnetic field MRCI      
  Miquel Garcia-Rates    : C-PCM and meta-GGA Hessian, CCSD/C-PCM, Gaussian charge scheme 
  Tiago L. C. Gouveia    : GS-ROHF, GS-ROCIS                             
  Yang Guo               : DLPNO-NEVPT2, F12-NEVPT2, CIM, IAO-localization        
  Andreas Hansen         : Spin unrestricted coupled pair/coupled cluster methods 
  Ingolf Harden          : AUTO-CI MPn and infrastructure                
  Benjamin Helmich-Paris : MC-RPA, TRAH-(SCF,CASSCF), AVAS, COSX integrals, SCF dyn. polar., MC-PDFT, srDFT 
  Lee Huntington         : MR-EOM, pCC                                   
  Robert Izsak           : Overlap fitted RIJCOSX, COSX-SCS-MP3, EOM     
  Riya Kayal             : Wick's Theorem for AUTO-CI, AUTO-CI UHF-CCSDT 
  Emily Kempfer          : AUTO-CI RHF CISDT and CCSDT, approximate NEVPT4
  Christian Kollmar      : KDIIS, OOCD, Brueckner-CCSD(T), CCSD density, CASPT2, CASPT2-K, improved NEVPT2 
  Axel Koslowski         : Symmetry handling                             
  Simone Kossmann        : meta-GGA functionals, TD-DFT gradient, OOMP2, (MP2 Hessian; deprecated post 5.0) 
  Lucas Lang             : DCDCAS, Hyperfine gauge corrections, ICE-SOC+SSC
  Marvin Lechner         : AUTO-CI (C++ implementation), FIC-MRCC        
  Spencer Leger          : CASSCF response                               
  Dagmar Lenk            : GEPOL surface, SMD, ORCA-2-JSON               
  Dimitrios Liakos       : Extrapolation schemes; Compound Job, Property file
  Dimitrios Manganas     : Further ROCIS development; embedding schemes. LFT, Crystal Embedding 
  Dimitrios Pantazis     : SARC Basis sets                               
  Anastasios Papadopoulos: AUTO-CI, single reference methods and gradients 
  Taras Petrenko         : pre 6.0 DFT Hessian and TD-DFT gradient,  ECA, NRVS 
  Petra Pikulova         : Analytic Raman intensities                    
  Peter Pinski           : DLPNO-MP2, DLPNO-MP2 Gradient                 
  Shashank Vittal Rao    : ES-AILFT, MagRelax                            
  Christoph Reimann      : Effective Core Potentials                     
  Marius Retegan         : Local ZFS, SOC                                
  Christoph Riplinger    : Optimizer, TS searches, QM/MM, DLPNO-CCSD(T), (RO)-DLPNO pert. Triples 
  Michael Roemelt        : Original ROCIS implementation, recursive CI coupling coefficients
  Masaaki Saitow         : Open-shell DLPNO-CCSD energy and density      
  Barbara Sandhoefer     : DKH picture change effects                    
  Yorick L. A. Schmerwitz: GMF and freeze-and-release deltaSCF, NEB S-IDPP initial path                    
  Kantharuban Sivalingam : CASSCF convergence/infrastructure, NEVPT2, NEVPT3, NEVPT4(SD), FIC-MRCI and CEPA variants
  Bernardo de Souza      : ESD, SOC TD-DFT                               
  Georgi L. Stoychev     : AutoAux, RI-MP2 NMR, DLPNO-MP2 response, X2C  
  Van Anh Tran           : RI-MP2 g-tensors                              
  Willem Van den Heuvel  : Paramagnetic NMR                              
  Zikuan Wang            : NOTCH, Electric field optimization            
  Frank Wennmohs         : Technical directorship and infrastructure     
  Hang Xu                : AUTO-CI-Response properties                   
                                                                         
[FACCTs GmbH]                                                            
  Markus Bursch, Nicolas Foglia, Miquel Garcia-Rates, Ingolf Harden, Hagen Neugebauer, Anastasios Papadopoulos, 
  Christoph Riplinger, Bernardo de Souza, Georgi L. Stoychev                                                    
                                                                 
  APM, various basis sets, CI-OPT, improved COSX, DLPNO-Multilevel,           
  DOCKER, DRACO, updates on ESD, Fragmentator, GOAT, IRC, LR-CPCM, L-BFGS, MBIS, meta-GGA TD-DFT gradient, ML-optimized integration grids, 
  MM, NACMEs, nearIR, NEB, NEB-TS, NL-DFT gradient (VV10), 2- and 3-layer-ONIOM, interface openCOSMO-RS, QMMM,   
  Crystal-QMMM, RESP, rigid body optimization, SF, symmetry and pop. for TD-DFT, various functionals, SOLVATOR                                   
                                                                         
[Other institutions]                                                     
  V. Asgeirsson          : NEB                                           
  Christoph Bannwarth    : sTDA-DFT, sTD-DFT, PBEh-3c, B97-3c, D3        
  Giovanni Bistoni       : ETS/NOCV, ADLD/ADEX, COVALED                  
  Martin Brehm           : Molecular dynamics                            
  Ronald Cardenas        : ETS/NOCV                                      
  Martina Colucci        : COVALED                                       
  Sebastian Ehlert       : rSCAN, r2SCAN, r2SCAN-3c, D4, dhf basis sets  
  Marvin Friede          : D4 for Fr, Ra, Ac-Lr                          
  Lars Goerigk           : TD-DFT with DH, B97 family of functionals     
  Stefan Grimme          : VdW corrections, initial TS optimization, DFT functionals, gCP, sTDA/sTD-DF 
  Waldemar Hujo          : DFT-NL                                        
  H. Jonsson             : NEB                                           
  Holger Kruse           : gCP                                           
  Marcel Mueller         : wB97X-3c, vDZP basis set                      
  Hagen Neugebauer       : wr2SCAN, Native XTB                           
  Gianluca Regni         : ADLD/ADEX                                     
  Tobias Risthaus        : pre 6.0 range-separated hybrid DFT and stability analysis
  Lukas Wittmann         : regularized MP2, r2SCAN double-hybrids, wr2SCAN        
                                                                         
We gratefully acknowledge several colleagues who have allowed us to      
interface, adapt or use parts of their codes:                            
  Ed Valeev, F. Pavosevic, A. Kumar             : LibInt (2-el integral package), F12 methods 
  Garnet Chan, S. Sharma, J. Yang, R. Olivares  : DMRG                   
  Ulf Ekstrom                                   : XCFun DFT Library      
  Mihaly Kallay                                 : mrcc  (arbitrary order and MRCC methods)
  Frank Weinhold                                : gennbo (NPA and NBO analysis)           
  Simon Mueller                                 : openCOSMO-RS                            
  Christopher J. Cramer and Donald G. Truhlar   : smd solvation model                     
  S Lehtola, MJT Oliveira, MAL Marques          : LibXC Library                           
  Liviu Ungur et al                             : ANISO software                          


 Your calculation uses the libint2 library for the computation of 2-el integrals
 For citations please refer to: http://libint.valeyev.net

 Your ORCA version has been built with support for libXC version: 7.0.0
 For citations please refer to: https://libxc.gitlab.io

 This ORCA versions uses:
   CBLAS   interface :  Fast vector & matrix operations
   LAPACKE interface :  Fast linear algebra routines
   SCALAPACK package :  Parallel linear algebra routines
   Shared memory     :  Shared parallel matrices
   BLAS/LAPACK       :  OpenBLAS 0.3.29  USE64BITINT DYNAMIC_ARCH NO_AFFINITY Zen SINGLE_THREADED
        Core in use  :  Zen
   Copyright (c) 2011-2014, The OpenBLAS Project


  ***********************************
  * Starting time: Tue Mar 10 16:58:33 2026
  * Host name:     d1-15
  * Process ID:    4056826
  * Working dir.:  /tmp/lscratch/avcopan/43473202
  ***********************************

NOTE: MaxCore=6000 MB was set to SCF,MP2,MDCI,CIPSI,MRCI,RASCI and CIS
      => If you want to overwrite this, your respective input block should be placed after the MaxCore statement


***************************************
The coordinates will be read from file: guess.xyz
***************************************


Your calculation utilizes the atom-pairwise dispersion correction
based on EEQ partial charges (D4)


Warning: RI is on but no J-basis has been assigned. Assigning Def2/J (nothing to worry about!)
================================================================================

----- Orbital basis set information -----
Your calculation utilizes the basis: def2-TZVPP
   F. Weigend and R. Ahlrichs, Phys. Chem. Chem. Phys. 7, 3297 (2005).

----- AuxJ basis set information -----
Your calculation utilizes the auxiliary basis: def2/J
   H-Rn: F. Weigend, Phys. Chem. Chem. Phys. 8, 1057 (2006).
   Fr-Lr: K. Eichkorn, F. Weigend, O. Treutler, R. Ahlrichs; Theor. Chem. Acc. 97, 119 (1997).

----- AuxC basis set information -----
Your calculation utilizes the auxiliary basis: def2-TZVPP/C
  H-La, Hf-Rn : A. Hellweg, C. Hattig, S. Hofener and W. Klopper, Theor. Chem. Acc. 117, 587 (2007).
        Ce-Lu : J. Chmela and M. E. Harding, Mol. Phys. (2018).

================================================================================
                                        WARNINGS
                       Please study these warnings very carefully!
================================================================================


WARNING: your system is open-shell and RHF/RKS was chosen
  ===> : WILL SWITCH to UHF/UKS


WARNING: The frozen-core approximation for MP2-gradient calculations is turned on by default.

WARNING: The environment variable RSH_COMMAND is not set!
  ===> : All Displacements for the Numerical Hessian or Gradient calculation
         will be started on localhost

WARNING: Geometry Optimization
  ===> : Switching off AutoStart
         For restart on a previous wavefunction, please use MOREAD

WARNING: The frozen-core approximation is turned on by default for 
         the MP2 part of double-hybrid DFT.

================================================================================
                                       INPUT FILE
================================================================================
NAME = opt.inp
|  1> % MaxCore 6000
|  2> ! PAL8
|  3> ! REVDSD-PBEP86-D4/2021 def2-TZVPP def2-TZVPP/c
|  4> ! VeryTightSCF DefGrid3
|  5> ! TightOpt
|  6> ! NumFreq
|  7> %geom
|  8>     InHess      read
|  9>     InHessName  "guess.hess"
| 10> end
| 11> * xyzfile 0 2 guess.xyz
| 12> 
| 13>                          ****END OF INPUT****
================================================================================

                       *****************************
                       * Geometry Optimization Run *
                       *****************************

Geometry optimization settings:
Update method            Update   .... BFGS
Choice of coordinates    CoordSys .... (2022) Redundant Internals
Initial Hessian          InHess   .... Read
Max. no of cycles        MaxIter  .... 50

Convergence Tolerances:
Energy Change            TolE     ....  1.0000e-06 Eh
Max. Gradient            TolMAXG  ....  1.0000e-04 Eh/bohr
RMS Gradient             TolRMSG  ....  3.0000e-05 Eh/bohr
Max. Displacement        TolMAXD  ....  1.0000e-03 bohr
RMS Displacement         TolRMSD  ....  6.0000e-04 bohr
Strict Convergence                .... False

------------------------------------------------------------------------------
                        ORCA OPTIMIZATION COORDINATE SETUP
------------------------------------------------------------------------------

The optimization will be done in redundant internal coordinates (2022)
Making redundant internal coordinates   ...  (2022 redundants) done
Evaluating the initial hessian          ... (Reading Exact Hessian)...  
InHessName: guess.hess	The file <guess.hess> is opened as a .hess file
done
done
Evaluating the coordinates              ...  done
Calculating the B-matrix                .... done
Calculating the G-matrix                .... done
The number of degrees of freedom        ....  193

    -----------------------------------------------------------------
                    Redundant Internal Coordinates


    -----------------------------------------------------------------
         Definition                    Initial Value    d2E/dq (diagonal element)
    -----------------------------------------------------------------
      1. B(C   1,C   0)                  1.5450         0.114531   
      2. B(C   2,C   1)                  1.5451         0.113804   
      3. B(C   3,C   2)                  1.5054         0.096896   
      4. B(C   4,C   0)                  1.5054         0.096103   
      5. B(C   4,C   3)                  1.3445         0.155642   
      6. B(H   5,C   0)                  1.0963         0.327314   
      7. B(H   6,C   0)                  1.0913         0.329923   
      8. B(H   7,C   1)                  1.0904         0.341437   
      9. B(H   8,C   1)                  1.0897         0.333868   
     10. B(H   9,C   2)                  1.0913         0.328693   
     11. B(H  10,C   2)                  1.0963         0.327292   
     12. B(H  11,C   3)                  1.0832         0.264797   
     13. B(H  12,C   4)                  1.0832         0.265265   
     14. B(O  13,C   4)                  2.5109         0.007282   
     15. B(O  13,C   1)                  3.0893         0.012234   
     16. B(O  13,H   6)                  3.0685         0.014385   
     17. B(O  13,C   2)                  3.0642         0.010619   
     18. B(O  13,C   0)                  3.0616         0.012453   
     19. B(O  13,H  12)                  2.9239         0.025249   
     20. B(O  13,H   9)                  3.0728         0.014642   
     21. B(O  13,H   8)                  2.6880         0.011431   
     22. B(O  13,H  11)                  2.9265         0.025477   
     23. B(O  13,C   3)                  2.5124         0.007180   
     24. B(H  14,O  13)                  0.9676         0.404476   
     25. B(H  14,H  12)                  2.7707         0.006368   
     26. B(H  14,H  11)                  2.7689         0.006536   
     27. B(H  14,C   4)                  2.6730         0.019000   
     28. B(H  14,C   3)                  2.6721         0.018761   
     29. A(C   4,C   0,H   5)          109.8392         0.015744   
     30. A(H   6,C   0,O  13)           80.1015         0.003366   
     31. A(H   5,C   0,H   6)          107.2256         0.006225   
     32. A(C   1,C   0,O  13)           76.4464         0.003761   
     33. A(C   1,C   0,C   4)          103.0797         0.008444   
     34. A(C   4,C   0,O  13)           54.6342         0.001521   
     35. A(C   1,C   0,H   5)          111.9561         0.006274   
     36. A(C   1,C   0,H   6)          112.3833         0.009187   
     37. A(C   4,C   0,H   6)          112.4052         0.006945   
     38. A(H   5,C   0,O  13)          164.3653         0.013104   
     39. A(C   0,C   1,H   7)          112.5832         0.005166   
     40. A(C   0,C   1,O  13)           74.4630         0.003519   
     41. A(C   0,C   1,H   8)          108.8925         0.007793   
     42. A(H   7,C   1,H   8)          108.1491         0.011404   
     43. A(C   2,C   1,H   7)          112.5826         0.004810   
     44. A(C   2,C   1,H   8)          108.8853         0.011880   
     45. A(H   7,C   1,O  13)          166.7702         0.003809   
     46. A(C   2,C   1,O  13)           74.5591         0.002888   
     47. A(H   8,C   1,O  13)           58.6213         0.005450   
     48. A(C   0,C   1,C   2)          105.6460         0.010646   
     49. A(H  10,C   2,O  13)          164.3581         0.034952   
     50. A(H   9,C   2,O  13)           80.2054         0.002372   
     51. A(C   3,C   2,O  13)           54.6096         0.001366   
     52. A(C   1,C   2,O  13)           76.3605         0.003351   
     53. A(H   9,C   2,H  10)          107.2252         0.010393   
     54. A(C   3,C   2,H  10)          109.8429         0.037729   
     55. A(C   1,C   2,H  10)          111.9526         0.011925   
     56. A(C   3,C   2,H   9)          112.4143         0.004548   
     57. A(C   1,C   2,H   9)          112.3789         0.007228   
     58. A(C   1,C   2,C   3)          103.0752         0.007693   
     59. A(H  11,C   3,O  13)          101.4293         0.002865   
     60. A(C   4,C   3,O  13)           74.4115         0.002629   
     61. A(C   2,C   3,O  13)           96.1500         0.003443   
     62. A(C   4,C   3,H  11)          124.8455         0.006257   
     63. A(C   2,C   3,H  11)          123.2536         0.007105   
     64. A(C   2,C   3,C   4)          111.7916         0.006232   
     65. A(C   3,C   4,O  13)           74.5404         0.002614   
     66. A(C   0,C   4,O  13)           96.0954         0.003618   
     67. A(C   3,C   4,H  12)          124.8579         0.006251   
     68. A(C   0,C   4,H  12)          123.2458         0.007106   
     69. A(H  12,C   4,O  13)          101.3623         0.002857   
     70. A(C   0,C   4,C   3)          111.7873         0.006235   
     71. A(C   1,O  13,C   2)           29.0805         0.003534   
     72. A(C   0,O  13,C   1)           29.0906         0.003534   
     73. A(C   4,O  13,H  14)           88.8714         0.002222   
     74. A(C   1,O  13,C   3)           49.1671         0.004475   
     75. A(C   1,O  13,C   4)           49.1753         0.004479   
     76. A(C   1,O  13,H  14)          136.0198         0.003474   
     77. A(C   0,O  13,C   2)           47.3965         0.004821   
     78. A(C   2,O  13,C   3)           29.2404         0.003431   
     79. A(C   2,O  13,C   4)           48.8919         0.005835   
     80. A(C   2,O  13,H  14)          115.9009         0.003590   
     81. A(C   0,O  13,C   3)           48.9183         0.005755   
     82. A(C   0,O  13,C   4)           29.2704         0.003388   
     83. A(C   0,O  13,H  14)          116.1750         0.003517   
     84. A(C   3,O  13,C   4)           31.0481         0.007113   
     85. A(C   3,O  13,H  14)           88.7227         0.002213   
     86. D(C   2,C   1,C   0,H   5)     97.5341         0.012529   
     87. D(H   7,C   1,C   0,C   4)   -143.7137         0.004490   
     88. D(H   7,C   1,C   0,H   5)    -25.7229         0.010371   
     89. D(C   2,C   1,C   0,O  13)    -68.6022         0.002534   
     90. D(H   7,C   1,C   0,H   6)     95.0296         0.007741   
     91. D(C   2,C   1,C   0,C   4)    -20.4567         0.003571   
     92. D(C   2,C   1,C   0,H   6)   -141.7134         0.007396   
     93. D(H   7,C   1,C   0,O  13)    168.1408         0.003338   
     94. D(H   9,C   2,C   1,H   8)     24.9027         0.008225   
     95. D(H   9,C   2,C   1,H   7)    -95.0197         0.005484   
     96. D(C   3,C   2,C   1,H   8)    -96.3599         0.006853   
     97. D(C   3,C   2,C   1,C   0)     20.4603         0.003755   
     98. D(C   3,C   2,C   1,O  13)    -48.0740         0.001434   
     99. D(H   9,C   2,C   1,C   0)    141.7229         0.005786   
    100. D(H   9,C   2,C   1,O  13)     73.1885         0.003218   
    101. D(C   3,C   2,C   1,H   7)    143.7177         0.004195   
    102. D(C   4,C   3,C   2,C   1)    -13.1539         0.003102   
    103. D(H  11,C   3,C   2,O  13)    107.9981         0.002794   
    104. D(C   4,C   3,C   2,H   9)   -134.3924         0.005291   
    105. D(H  11,C   3,C   2,H   9)     49.2464         0.005780   
    106. D(H  11,C   3,C   2,C   1)    170.4849         0.004100   
    107. D(H  11,C   3,C   2,H  10)    -70.0544         0.002698   
    108. D(C   4,C   3,C   2,O  13)    -75.6406         0.003687   
    109. D(C   4,C   3,C   2,H  10)    106.3069         0.003209   
    110. D(C   3,C   4,C   0,O  13)     75.7584         0.003656   
    111. D(H  12,C   4,C   0,H   5)     70.0449         0.002530   
    112. D(H  12,C   4,C   0,C   1)   -170.4897         0.004217   
    113. D(H  12,C   4,C   0,H   6)    -49.2479         0.006603   
    114. D(C   0,C   4,C   3,O  13)    -90.4640         0.003947   
    115. D(C   0,C   4,C   3,H  11)    176.3005         0.005278   
    116. D(O  13,C   4,C   3,H  11)    -93.2355         0.003714   
    117. D(H  12,C   4,C   3,O  13)     93.2374         0.003748   
    118. D(H  12,C   4,C   3,H  11)      0.0018         0.003873   
    119. D(H  12,C   4,C   3,C   2)   -176.2904         0.005225   
    120. D(C   3,C   4,C   0,H   5)   -106.3236         0.002995   
    121. D(C   3,C   4,C   0,H   6)    134.3836         0.006234   
    122. D(C   3,C   4,C   0,C   1)     13.1418         0.003440   
    123. D(O  13,C   4,C   3,C   2)     90.4723         0.003765   
    124. D(C   0,C   4,C   3,C   2)      0.0083         0.003650   
    125. D(H  12,C   4,C   0,O  13)   -107.8731         0.002816   
    126. D(C   4,O  13,C   1,H   8)   -159.3672         0.012213   
    127. D(C   4,O  13,C   1,H   7)   -159.0813         0.003390   
    128. D(C   4,O  13,C   1,C   2)     76.4537         0.009264   
    129. D(H  14,O  13,C   1,H   8)    179.4968         0.010173   
    130. D(H  14,O  13,C   1,H   7)    179.7827         0.002050   
    131. D(H  14,O  13,C   1,C   2)     55.3176         0.004732   
    132. D(C   2,O  13,C   0,H   5)    -86.5571         0.003444   
    133. D(C   2,O  13,C   4,H  12)   -160.5777         0.006373   
    134. D(C   2,O  13,C   4,C   3)    -37.2603         0.005512   
    135. D(C   2,O  13,C   0,C   1)     37.8937         0.006023   
    136. D(C   3,O  13,C   0,H   6)   -166.4631         0.009206   
    137. D(C   2,O  13,C   0,C   4)    -79.2722         0.008247   
    138. D(C   1,O  13,C   4,H  12)    160.5843         0.005866   
    139. D(H  14,O  13,C   1,C   0)    -56.2252         0.004807   
    140. D(C   3,O  13,C   4,H  12)   -123.3175         0.006103   
    141. D(C   3,O  13,C   0,H   5)    -46.9983         0.003194   
    142. D(H  14,O  13,C   4,H  12)    -33.9193         0.004372   
    143. D(C   4,O  13,C   1,C   0)    -35.0892         0.005486   
    144. D(C   3,O  13,C   0,C   4)    -39.7134         0.008723   
    145. D(H  14,O  13,C   4,C   3)     89.3982         0.002772   
    146. D(H  14,O  13,C   4,C   0)   -159.6397         0.003403   
    147. D(C   3,O  13,C   1,C   0)    -76.5183         0.009145   
    148. D(C   3,O  13,C   0,C   1)     77.4524         0.008027   
    149. D(C   4,O  13,C   0,H   6)   -126.7497         0.008356   
    150. D(C   2,O  13,C   3,H  11)   -125.7649         0.006259   
    151. D(C   4,O  13,C   0,H   5)     -7.2849         0.004060   
    152. D(C   4,O  13,C   0,C   1)    117.1659         0.006976   
    153. D(C   0,O  13,C   3,C   4)     37.2805         0.005494   
    154. D(C   0,O  13,C   3,C   2)    -73.6710         0.006709   
    155. D(H  14,O  13,C   0,H   6)   -103.9442         0.007497   
    156. D(H  14,O  13,C   0,H   5)     15.5206         0.001724   
    157. D(H  14,O  13,C   3,C   4)    -89.9334         0.002793   
    158. D(H  14,O  13,C   0,C   4)     22.8055         0.004337   
    159. D(C   0,O  13,C   2,H   9)   -153.9777         0.006896   
    160. D(H  14,O  13,C   0,C   1)    139.9714         0.003538   
    161. D(C   0,O  13,C   2,C   3)     79.3466         0.007924   
    162. D(C   0,O  13,C   2,C   1)    -37.9079         0.005884   
    163. D(C   3,O  13,C   2,H  10)      6.8090         0.004063   
    164. D(C   3,O  13,C   2,H   9)    126.6757         0.006794   
    165. D(C   3,O  13,C   2,C   1)   -117.2546         0.006656   
    166. D(C   4,O  13,C   2,H  10)     46.5450         0.003473   
    167. D(H  14,O  13,C   3,C   2)    159.1151         0.003433   
    168. D(C   4,O  13,C   2,H   9)    166.4117         0.007286   
    169. D(H  14,O  13,C   3,H  11)     33.3502         0.004400   
    170. D(C   4,O  13,C   3,C   2)   -110.9515         0.005874   
    171. D(C   4,O  13,C   3,H  11)    123.2836         0.006105   
    172. D(C   4,O  13,C   2,C   3)     39.7360         0.008657   
    173. D(C   4,O  13,C   2,C   1)    -77.5185         0.007893   
    174. D(C   0,O  13,C   3,H  11)    160.5640         0.006309   
    175. D(C   2,O  13,C   3,C   4)    110.9515         0.005874   
    176. D(H  14,O  13,C   2,H  10)    -16.5320         0.002082   
    177. D(C   1,O  13,C   3,C   2)    -34.8244         0.004706   
    178. D(C   1,O  13,C   3,C   4)     76.1271         0.006278   
    179. D(C   1,O  13,C   3,H  11)   -160.5893         0.005840   
    180. D(H  14,O  13,C   2,H   9)    103.3347         0.005574   
    181. D(H  14,O  13,C   2,C   3)    -23.3410         0.004354   
    182. D(H  14,O  13,C   2,C   1)   -140.5955         0.003428   
    183. D(C   3,O  13,C   4,C   0)    110.9622         0.005893   
    184. D(C   0,O  13,C   1,H   7)   -123.9921         0.002901   
    185. D(C   0,O  13,C   4,C   3)   -110.9622         0.005893   
    186. D(C   0,O  13,C   4,H  12)    125.7204         0.006275   
    187. D(C   2,O  13,C   4,C   0)     73.7019         0.006835   
    188. D(C   0,O  13,C   1,C   2)    111.5429         0.008542   
    189. D(C   3,O  13,C   1,H   8)    159.2037         0.011530   
    190. D(C   1,O  13,C   4,C   0)     34.8639         0.004781   
    191. D(C   1,O  13,C   4,C   3)    -76.0982         0.006313   
    192. D(C   3,O  13,C   1,H   7)    159.4896         0.004252   
    193. D(C   3,O  13,C   1,C   2)     35.0245         0.005421   
    -----------------------------------------------------------------

Number of atoms                         .... 15
Number of degrees of freedom            .... 193


         *************************************************************
         *                GEOMETRY OPTIMIZATION CYCLE   1            *
         *************************************************************
---------------------------------
CARTESIAN COORDINATES (ANGSTROEM)
---------------------------------
  C      1.930929    1.427693   -0.090176
  C      0.718948    2.301892    0.302124
  C     -0.527987    1.429659    0.034563
  C      0.029987    0.031481    0.025489
  C      1.372707    0.030377   -0.042736
  H      2.287440    1.651757   -1.102389
  H      2.776189    1.561160    0.587104
  H      0.692238    3.247891   -0.239394
  H      0.773118    2.522285    1.367888
  H     -1.300164    1.564623    0.793855
  H     -0.984666    1.654388   -0.936425
  H     -0.591146   -0.855840    0.011727
  H      1.987971   -0.857807   -0.119342
  O      0.827092    0.044313    2.408097
  H      0.820793   -0.923168    2.392670

----------------------------
CARTESIAN COORDINATES (A.U.)
----------------------------
  NO LB      ZA    FRAG     MASS         X           Y           Z
   0 C     6.0000    0    12.011    3.648927    2.697948   -0.170408
   1 C     6.0000    0    12.011    1.358615    4.349946    0.570932
   2 C     6.0000    0    12.011   -0.997750    2.701663    0.065314
   3 C     6.0000    0    12.011    0.056668    0.059491    0.048168
   4 C     6.0000    0    12.011    2.594041    0.057405   -0.080759
   5 H     1.0000    0     1.008    4.322636    3.121369   -2.083212
   6 H     1.0000    0     1.008    5.246237    2.950165    1.109466
   7 H     1.0000    0     1.008    1.308140    6.137625   -0.452389
   8 H     1.0000    0     1.008    1.460982    4.766428    2.584935
   9 H     1.0000    0     1.008   -2.456955    2.956708    1.500169
  10 H     1.0000    0     1.008   -1.860749    3.126341   -1.769587
  11 H     1.0000    0     1.008   -1.117104   -1.617302    0.022160
  12 H     1.0000    0     1.008    3.756721   -1.621020   -0.225524
  13 O     8.0000    0    15.999    1.562976    0.083739    4.550645
  14 H     1.0000    0     1.008    1.551073   -1.744535    4.521491

--------------------------------
INTERNAL COORDINATES (ANGSTROEM)
--------------------------------
 C      0   0   0     0.000000000000     0.00000000     0.00000000
 C      1   0   0     1.544998676907     0.00000000     0.00000000
 C      2   1   0     1.545065186334   105.64599828     0.00000000
 C      3   2   1     1.505429588979   103.07521189    20.46033497
 C      4   3   2     1.344452493843   111.79159113   346.84613514
 H      1   2   3     1.096302719508   111.95607815    97.53405443
 H      1   2   3     1.091323501958   112.38326513   218.28659627
 H      2   1   3     1.090353133130   112.58322224   236.74302001
 H      2   1   3     1.089661036659   108.89246204   116.81539135
 H      3   2   1     1.091328930849   112.37893878   141.72289290
 H      3   2   1     1.096301177783   111.95262871   262.46941673
 H      4   3   2     1.083205312535   123.25355707   170.48488908
 H      5   4   3     1.083185088302   124.85793111   183.70963408
 O      5   4   3     2.510871485166    74.54042944    90.47227375
 H     14   5   4     0.967623980527    88.87135817    89.39815641

---------------------------
INTERNAL COORDINATES (A.U.)
---------------------------
 C      0   0   0     0.000000000000     0.00000000     0.00000000
 C      1   0   0     2.919624376626     0.00000000     0.00000000
 C      2   1   0     2.919750061228   105.64599828     0.00000000
 C      3   2   1     2.844849637072   103.07521189    20.46033497
 C      4   3   2     2.540647013430   111.79159113   346.84613514
 H      1   2   3     2.071711899744   111.95607815    97.53405443
 H      1   2   3     2.062302542213   112.38326513   218.28659627
 H      2   1   3     2.060468810879   112.58322224   236.74302001
 H      2   1   3     2.059160938090   108.89246204   116.81539135
 H      3   2   1     2.062312801329   112.37893878   141.72289290
 H      3   2   1     2.071708986305   111.95262871   262.46941673
 H      4   3   2     2.046961387500   123.25355707   170.48488908
 H      5   4   3     2.046923169238   124.85793111   183.70963408
 O      5   4   3     4.744859464436    74.54042944    90.47227375
 H     14   5   4     1.828544323811    88.87135817    89.39815641

---------------------
BASIS SET INFORMATION
---------------------
There are 3 groups of distinct atoms

 Group   1 Type C   : 11s6p2d1f contracted to 5s3p2d1f pattern {62111/411/11/1}
 Group   2 Type H   : 5s2p1d contracted to 3s2p1d pattern {311/11/1}
 Group   3 Type O   : 11s6p2d1f contracted to 5s3p2d1f pattern {62111/411/11/1}

Atom   0C    basis set group =>   1
Atom   1C    basis set group =>   1
Atom   2C    basis set group =>   1
Atom   3C    basis set group =>   1
Atom   4C    basis set group =>   1
Atom   5H    basis set group =>   2
Atom   6H    basis set group =>   2
Atom   7H    basis set group =>   2
Atom   8H    basis set group =>   2
Atom   9H    basis set group =>   2
Atom  10H    basis set group =>   2
Atom  11H    basis set group =>   2
Atom  12H    basis set group =>   2
Atom  13O    basis set group =>   3
Atom  14H    basis set group =>   2
---------------------------------
AUXILIARY/J BASIS SET INFORMATION
---------------------------------
There are 3 groups of distinct atoms

 Group   1 Type C   : 12s5p4d2f1g contracted to 6s4p3d1f1g pattern {711111/2111/211/2/1}
 Group   2 Type H   : 5s2p1d contracted to 3s1p1d pattern {311/2/1}
 Group   3 Type O   : 12s5p4d2f1g contracted to 6s4p3d1f1g pattern {711111/2111/211/2/1}

Atom   0C    basis set group =>   1
Atom   1C    basis set group =>   1
Atom   2C    basis set group =>   1
Atom   3C    basis set group =>   1
Atom   4C    basis set group =>   1
Atom   5H    basis set group =>   2
Atom   6H    basis set group =>   2
Atom   7H    basis set group =>   2
Atom   8H    basis set group =>   2
Atom   9H    basis set group =>   2
Atom  10H    basis set group =>   2
Atom  11H    basis set group =>   2
Atom  12H    basis set group =>   2
Atom  13O    basis set group =>   3
Atom  14H    basis set group =>   2
---------------------------------
AUXILIARY/C BASIS SET INFORMATION
---------------------------------
There are 3 groups of distinct atoms

 Group   1 Type C   : 8s6p5d3f1g contracted to 8s6p4d3f1g pattern {11111111/111111/2111/111/1}
 Group   2 Type H   : 4s3p2d1f contracted to 4s3p2d1f pattern {1111/111/11/1}
 Group   3 Type O   : 8s6p5d3f1g contracted to 8s6p4d3f1g pattern {11111111/111111/2111/111/1}

Atom   0C    basis set group =>   1
Atom   1C    basis set group =>   1
Atom   2C    basis set group =>   1
Atom   3C    basis set group =>   1
Atom   4C    basis set group =>   1
Atom   5H    basis set group =>   2
Atom   6H    basis set group =>   2
Atom   7H    basis set group =>   2
Atom   8H    basis set group =>   2
Atom   9H    basis set group =>   2
Atom  10H    basis set group =>   2
Atom  11H    basis set group =>   2
Atom  12H    basis set group =>   2
Atom  13O    basis set group =>   3
Atom  14H    basis set group =>   2


           ************************************************************
           *        Program running with 8 parallel MPI-processes     *
           *              working on a common directory               *
           ************************************************************
------------------------------------------------------------------------------
                             ORCA STARTUP CALCULATIONS
                           -- RI-GTO INTEGRALS CHOSEN --
------------------------------------------------------------------------------
------------------------------------------------------------------------------
                   ___                                                        
                  /   \      - P O W E R E D   B Y -                         
                 /     \                                                     
                 |  |  |   _    _      __       _____    __    __             
                 |  |  |  | |  | |    /  \     |  _  \  |  |  /  |          
                  \  \/   | |  | |   /    \    | | | |  |  | /  /          
                 / \  \   | |__| |  /  /\  \   | |_| |  |  |/  /          
                |  |  |   |  __  | /  /__\  \  |    /   |      \           
                |  |  |   | |  | | |   __   |  |    \   |  |\   \          
                \     /   | |  | | |  |  |  |  | |\  \  |  | \   \       
                 \___/    |_|  |_| |__|  |__|  |_| \__\ |__|  \__/        
                                                                              
                      - O R C A' S   B I G   F R I E N D -                    
                                      &                                       
                       - I N T E G R A L  F E E D E R -                       
                                                                              
 v1 FN, 2020, v2 2021, v3 2022-2024                                           
------------------------------------------------------------------------------


----------------------
SHARK INTEGRAL PACKAGE
----------------------

Number of atoms                             ...     15
Number of basis functions                   ...    312
Number of shells                            ...    120
Maximum angular momentum                    ...      3
Integral batch strategy                     ... SHARK/LIBINT Hybrid
RI-J (if used) integral strategy            ... SPLIT-RIJ (Revised 2003 algorithm where possible)
Printlevel                                  ...      1
Contraction scheme used                     ... SEGMENTED contraction
Prescreening option                         ... SCHWARTZ
   Thresh                                   ... 1.000e-12
   Tcut                                     ... 1.000e-14
   Tpresel                                  ... 1.000e-14 
Coulomb Range Separation                    ... NOT USED
Exchange Range Separation                   ... NOT USED
Multipole approximations                    ... NOT USED
Finite Nucleus Model                        ... NOT USED
CABS basis                                  ... NOT available
Auxiliary Coulomb fitting basis             ... AVAILABLE
   # of basis functions in Aux-J            ...    393
   # of shells in Aux-J                     ...    135
   Maximum angular momentum in Aux-J        ...      4
Auxiliary J/K fitting basis                 ... NOT available
Auxiliary Correlation fitting basis         ... AVAILABLE
   # of basis functions in Aux-C            ...    726
   # of shells in Aux-C                     ...    222
   Maximum angular momentum in Aux-C        ...      4
Auxiliary 'external' fitting basis          ... NOT available

Checking pre-screening integrals            ... done (  0.0 sec) Dimension = 120
   => SHARK Basis and OBASIS are compatible. Storing Pre-screening
Shell pair information
Shell pair cut-off parameter TPreSel        ...   1.0e-14
Total number of shell pairs                 ...      7260
Shell pairs after pre-screening             ...      6989
Total number of primitive shell pairs       ...     18687
Primitive shell pairs kept                  ...     14742
          la=0 lb=0:   1555 shell pairs
          la=1 lb=0:   1971 shell pairs
          la=1 lb=1:    649 shell pairs
          la=2 lb=0:   1153 shell pairs
          la=2 lb=1:    740 shell pairs
          la=2 lb=2:    225 shell pairs
          la=3 lb=0:    336 shell pairs
          la=3 lb=1:    213 shell pairs
          la=3 lb=2:    126 shell pairs
          la=3 lb=3:     21 shell pairs

Checking whether 4 symmetric matrices of dimension 312 fit in memory
:Max Core in MB      =   6000.00
 MB in use           =     12.08
 MB left             =   5987.92
 MB needed           =      1.49
 Data fit in memory  = YES
Calculating RI/J V-Matrix + Cholesky decomp.... done (  0.0 sec)
Calculating RI/C V-Matrix + Cholesky decomp.... done (  0.0 sec)
Calculating Nuclear repulsion               ... done (  0.0 sec) ENN=    237.285423034877 Eh

Diagonalization of the overlap matrix:
Smallest eigenvalue                        ... 7.240e-05
Time for diagonalization                   ...    0.018 sec
Threshold for overlap eigenvalues          ... 1.000e-07
Number of eigenvalues below threshold      ... 0
Time for construction of square roots      ...    0.009 sec
Total time needed                          ...    0.028 sec

-------------------
DFT GRID GENERATION
-------------------

General Integration Accuracy     IntAcc      ... 4.959
Radial Grid Type                 RadialGrid  ... OptM3 with GC (2021)
Angular Grid (max. ang.)         AngularGrid ... 6 (Lebedev-590)
Angular grid pruning method      GridPruning ... 4 (adaptive)
Weight generation scheme         WeightScheme... mBecke (2022)
Basis function cutoff            BFCut       ... 1.0000e-12
Integration weight cutoff        WCut        ... 1.0000e-14
Partially contracted basis set               ... off
Rotationally invariant grid construction     ... off
Angular grids for H and He will be reduced by one unit

Total number of grid points                  ...   164171
Total number of batches                      ...     2574
Average number of points per batch           ...       63
Average number of grid points per atom       ...    10945

--------------------
COSX GRID GENERATION
--------------------

GRIDX 1
-------
General Integration Accuracy     IntAcc      ... 4.020
Radial Grid Type                 RadialGrid  ... OptM3 with GC (2021)
Angular Grid (max. ang.)         AngularGrid ... 2 (Lebedev-110)
Angular grid pruning method      GridPruning ... 4 (adaptive)
Weight generation scheme         WeightScheme... mBecke (2022)
Basis function cutoff            BFCut       ... 1.0000e-12
Integration weight cutoff        WCut        ... 1.0000e-14
Partially contracted basis set               ... on
Rotationally invariant grid construction     ... off
Angular grids for H and He will be reduced by one unit

Total number of grid points                  ...    17662
Total number of batches                      ...      146
Average number of points per batch           ...      120
Average number of grid points per atom       ...     1177
UseSFitting                                  ... on

GRIDX 2
-------
General Integration Accuracy     IntAcc      ... 4.338
Radial Grid Type                 RadialGrid  ... OptM3 with GC (2021)
Angular Grid (max. ang.)         AngularGrid ... 3 (Lebedev-194)
Angular grid pruning method      GridPruning ... 4 (adaptive)
Weight generation scheme         WeightScheme... mBecke (2022)
Basis function cutoff            BFCut       ... 1.0000e-12
Integration weight cutoff        WCut        ... 1.0000e-14
Partially contracted basis set               ... on
Rotationally invariant grid construction     ... off
Angular grids for H and He will be reduced by one unit

Total number of grid points                  ...    38638
Total number of batches                      ...      311
Average number of points per batch           ...      124
Average number of grid points per atom       ...     2576
UseSFitting                                  ... on

GRIDX 3
-------
General Integration Accuracy     IntAcc      ... 4.871
Radial Grid Type                 RadialGrid  ... OptM3 with GC (2021)
Angular Grid (max. ang.)         AngularGrid ... 4 (Lebedev-302)
Angular grid pruning method      GridPruning ... 4 (adaptive)
Weight generation scheme         WeightScheme... mBecke (2022)
Basis function cutoff            BFCut       ... 1.0000e-12
Integration weight cutoff        WCut        ... 1.0000e-14
Partially contracted basis set               ... on
Rotationally invariant grid construction     ... off
Angular grids for H and He will be reduced by one unit

Total number of grid points                  ...    75663
Total number of batches                      ...      599
Average number of points per batch           ...      126
Average number of grid points per atom       ...     5044
UseSFitting                                  ... on
Grids setup in   2.3 sec
Initializing property integral containers    ... done (  0.0 sec)

SHARK setup successfully completed in   2.7 seconds

Maximum memory used throughout the entire STARTUP-calculation: 42.6 MB


           ************************************************************
           *        Program running with 8 parallel MPI-processes     *
           *              working on a common directory               *
           ************************************************************
-------------------------------------------------------------------------------
                                 ORCA GUESS
                   Start orbitals & Density for SCF / CASSCF
-------------------------------------------------------------------------------

------------
SCF SETTINGS
------------
Hamiltonian:
 Density Functional     Method          .... DFT(GTOs)
 Exchange Functional    Exchange        .... PBE
   PBE kappa parameter   XKappa         ....  0.804000
   PBE mue parameter    XMuePBE         ....  0.219520
 Correlation Functional Correlation     .... P86
 LDA part of GGA corr.  LDAOpt          .... VWN-5
 Gradients option       PostSCFGGA      .... off
 Hybrid DFT is turned on
   Fraction HF Exchange ScalHFX         ....  0.690000
   Scaling of DF-GGA-X  ScalDFX         ....  0.310000
   Scaling of DF-GGA-C  ScalDFC         ....  0.422400
   Scaling of DF-LDA-C  ScalLDAC        ....  0.422400
   Perturbative correction              ....  1.000000
 RI-approximation to the Coulomb term is turned on
   Number of AuxJ basis functions       .... 393
   RIJ-COSX (HFX calculated with COS-X)).... on


General Settings:
 Integral files         IntName         .... opt
 Hartree-Fock type      HFTyp           .... UHF
 Total Charge           Charge          ....    0
 Multiplicity           Mult            ....    2
 Number of Electrons    NEL             ....   47
 Basis Dimension        Dim             ....  312
 Nuclear Repulsion      ENuc            ....    237.2854230349 Eh

Convergence Acceleration:
 AO-DIIS                CNVDIIS         .... on
   Start iteration      DIISMaxIt       ....    12
   Startup error        DIISStart       ....  0.200000
   # of expansion vecs  DIISMaxEq       ....     5
   Bias factor          DIISBfac        ....   1.050
   Max. coefficient     DIISMaxC        ....  10.000
 MO-DIIS                CNVKDIIS        .... off
 Trust-Rad. Augm. Hess. CNVTRAH         .... auto
   Auto Start mean grad. ratio tolernc. ....  1.125000
   Auto Start start iteration           ....    50
   Auto Start num. interpolation iter.  ....    10
   Max. Number of Micro iterations      ....    24
   Max. Number of Macro iterations      .... Maxiter - #DIIS iter
   Number of Davidson start vectors     ....     2
   Converg. threshold    (grad. norm)   ....   2.000e-06
   Grad. Scal. Fac. for Micro threshold ....   0.100
   Minimum threshold for Micro iter.    ....   1.000e-02
   NR start threshold (gradient norm)   ....   1.000e-04
   Initial trust radius                 ....   0.400
   Minimum AH scaling param. (alpha)    ....   1.000
   Maximum AH scaling param. (alpha)    .... 1000.000
   Quad. conv. algorithm                .... NR
   White noise on init. David. guess    .... on
   Maximum white noise                  ....   0.010
   Pseudo random numbers                .... off
   Inactive MOs                         .... canonical
   Orbital update algorithm             .... Taylor
   Preconditioner                       .... Diag
   Full preconditioner red. dimension   ....   250
 SOSCF                 CNVSOSCF           .... on
   Start iteration     SOSCFMaxIt         ....   150
   Startup grad/error  SOSCFStart         ....  0.003300
   Hessian update      SOSCFHessUp        .... L-BFGS
   Autom. constraints  SOSCFAutoConstrain .... off
 Level Shifting         CNVShift        .... on
   Level shift para.    LevelShift      ....    0.2500
   Turn off err/grad.   ShiftErr        ....    0.0010
 Zerner damping         CNVZerner       .... off
 Static damping         CNVDamp         .... on
   Fraction old density DampFac         ....    0.7000
   Max. Damping (<1)    DampMax         ....    0.9800
   Min. Damping (>=0)   DampMin         ....    0.0000
   Turn off err/grad.   DampErr         ....    0.1000

SCF Procedure:
 Maximum # iterations   MaxIter         ....   125
 SCF integral mode      SCFMode         .... Direct
   Integral package                     .... SHARK and LIBINT hybrid scheme
 Reset frequency        DirectResetFreq ....    20
 Integral Threshold     Thresh          ....  1.000e-12 Eh
 Primitive CutOff       TCut            ....  1.000e-14 Eh

Convergence Tolerance:
 Convergence Check Mode ConvCheckMode   .... Total+1el-Energy
 Convergence forced     ConvForced      .... 0
 Energy Change          TolE            ....  1.000e-09 Eh
 1-El. energy change                    ....  1.000e-06 Eh
 Orbital Gradient       TolG            ....  2.000e-06
 Orbital Rotation angle TolX            ....  2.000e-06
 DIIS Error             TolErr          ....  1.000e-08

------------------------------
INITIAL GUESS: MODEL POTENTIAL
------------------------------
Loading Hartree-Fock densities                     ... done
Calculating cut-offs                               ... done
Initializing the effective Hamiltonian             ... done
Setting up the integral package (SHARK)            ... done
Starting the Coulomb interaction                   ... done (   0.1 sec)
Making the grid                                    ... done (   0.1 sec)
Mapping shells                                     ... done
Starting the XC term evaluation                    ... done (   0.1 sec)
  promolecular density results
     # of electrons  =     46.992334543
     EX              =    -36.299761742
     EC              =      0.021944292
     EX+EC           =    -36.277817450
Transforming the Hamiltonian                       ... done (   0.0 sec)
Diagonalizing the Hamiltonian                      ... done (   0.0 sec)
Back transforming the eigenvectors                 ... done (   0.0 sec)
Now organizing SCF variables                       ... done
                      ------------------
                      INITIAL GUESS DONE (   0.3 sec)
                      ------------------
             **** ENERGY FILE WAS UPDATED (opt.en.tmp) ****
Finished Guess after   2.4 sec
Maximum memory used throughout the entire GUESS-calculation: 18.1 MB


           ************************************************************
           *        Program running with 8 parallel MPI-processes     *
           *              working on a common directory               *
           ************************************************************

-------------------------------------------------------------------------------------------
                                      ORCA LEAN-SCF
                              memory conserving SCF solver
-------------------------------------------------------------------------------------------

----------------------------------------D-I-I-S--------------------------------------------
Iteration    Energy (Eh)           Delta-E    RMSDP     MaxDP     DIISErr   Damp  Time(sec)
-------------------------------------------------------------------------------------------
               ***  Starting incremental Fock matrix formation  ***
    1    -269.8283469474482672     0.00e+00  1.76e-03  2.90e-02  1.73e-01  0.700   4.6
    2    -269.9305273055232419    -1.02e-01  1.32e-03  2.29e-02  9.30e-02  0.700   2.7
                               ***Turning on AO-DIIS***
    3    -269.9803772697159729    -4.98e-02  7.01e-04  1.38e-02  5.10e-02  0.700   2.6
    4    -270.0118872638643097    -3.15e-02  1.82e-03  4.00e-02  4.03e-02  0.000   2.6
    5    -270.0909971597202457    -7.91e-02  6.35e-04  1.25e-02  2.38e-02  0.000   2.7
    6    -270.0963150762418081    -5.32e-03  7.60e-04  1.19e-02  1.78e-02  0.000   2.6
    7    -270.1009062383656101    -4.59e-03  5.98e-04  1.03e-02  1.63e-02  0.000   2.6
    8    -270.1038261427869429    -2.92e-03  5.98e-04  1.07e-02  1.07e-02  0.000   2.5
    9    -270.1054161400757039    -1.59e-03  2.63e-04  3.40e-03  7.10e-03  0.000   2.5
   10    -270.1059196578013371    -5.04e-04  2.11e-04  2.98e-03  3.68e-03  0.000   2.5
                              *** Initializing SOSCF ***
---------------------------------------S-O-S-C-F--------------------------------------
Iteration    Energy (Eh)           Delta-E    RMSDP     MaxDP     MaxGrad    Time(sec)
--------------------------------------------------------------------------------------
   11    -270.1060980306058354    -1.78e-04  7.57e-05  9.07e-04  1.97e-03     2.5
               *** Restarting incremental Fock matrix formation ***
   12    -270.1061467704129200    -4.87e-05  4.34e-05  5.41e-04  1.50e-03     4.5
   13    -270.1061557838127101    -9.01e-06  3.16e-05  3.86e-04  4.03e-04     3.8
   14    -270.1061595075631203    -3.72e-06  2.15e-05  4.11e-04  1.30e-04     3.8
   15    -270.1061600241783935    -5.17e-07  1.14e-05  2.50e-04  7.36e-05     3.6
   16    -270.1061601204420413    -9.63e-08  1.15e-06  1.72e-05  3.35e-05     3.5
   17    -270.1061601304725173    -1.00e-08  1.28e-06  1.82e-05  1.91e-05     3.3
   18    -270.1061601351349282    -4.66e-09  5.63e-07  9.51e-06  6.23e-06     3.2
   19    -270.1061601361599287    -1.03e-09  2.56e-07  4.84e-06  2.44e-06     3.1
   20    -270.1061601360935356     6.64e-11  1.27e-07  2.16e-06  1.03e-06     3.0
                 **** Energy Check signals convergence ****

               *****************************************************
               *                     SUCCESS                       *
               *           SCF CONVERGED AFTER  20 CYCLES          *
               *****************************************************

Recomputing exchange energy using gridx3       ... done (    5.978 sec)
Old exchange energy                            :    -25.783325509 Eh
New exchange energy                            :    -25.783321714 Eh
Exchange energy change after final integration :      0.000003795 Eh
Total energy after final integration           :   -270.106156341 Eh
             **** ENERGY FILE WAS UPDATED (opt.en.tmp) ****

----------------
TOTAL SCF ENERGY
----------------

Total Energy       :       -270.10615634101885 Eh           -7349.96218 eV

Components:
Nuclear Repulsion  :        237.28542303487663 Eh            6456.86462 eV
Electronic Energy  :       -507.39158317106029 Eh          -13806.82690 eV
One Electron Energy:       -836.48618578945002 Eh          -22761.94631 eV
Two Electron Energy:        329.09460261838973 Eh            8955.11941 eV

Virial components:
Potential Energy   :       -539.53244653750244 Eh          -14681.42426 eV
Kinetic Energy     :        269.42629019648359 Eh            7331.46208 eV
Virial Ratio       :          2.00252338457409

DFT components:
N(Alpha)           :       24.000002405251 electrons
N(Beta)            :       23.000002608768 electrons
N(Total)           :       47.000005014019 electrons
E(X)               :      -11.523712406824 Eh       
E(C)               :       -0.710213800484 Eh       
E(XC)              :      -12.233926207308 Eh       

---------------
SCF CONVERGENCE
---------------

  Last Energy change         ...   -6.6393e-11  Tolerance :   1.0000e-09
  Last MAX-Density change    ...    2.1555e-06  Tolerance :   1.0000e-08
  Last RMS-Density change    ...    1.2671e-07  Tolerance :   1.0000e-09
  Last DIIS Error            ...    1.9719e-03  Tolerance :   1.0000e-08
  Last Orbital Gradient      ...    1.0285e-06  Tolerance :   2.0000e-06
  Last Orbital Rotation      ...    3.0469e-06  Tolerance :   2.0000e-06


----------------------
UHF SPIN CONTAMINATION
----------------------

Warning: in a DFT calculation there is little theoretical justification to 
         calculate <S**2> as in Hartree-Fock theory. We will do it anyways
         but you should keep in mind that the values have only limited relevance

Expectation value of <S**2>     :     0.758422
Ideal value S*(S+1) for S=0.5   :     0.750000
Deviation                       :     0.008422

----------------
ORBITAL ENERGIES
----------------
                 SPIN UP ORBITALS
  NO   OCC          E(Eh)            E(eV) 
   0   1.0000     -20.044457      -545.4374 
   1   1.0000     -10.816428      -294.3300 
   2   1.0000     -10.815081      -294.2933 
   3   1.0000     -10.805693      -294.0378 
   4   1.0000     -10.805673      -294.0373 
   5   1.0000     -10.800218      -293.8889 
   6   1.0000      -1.218968       -33.1698 
   7   1.0000      -1.022780       -27.8312 
   8   1.0000      -0.868439       -23.6314 
   9   1.0000      -0.862254       -23.4631 
  10   1.0000      -0.704620       -19.1737 
  11   1.0000      -0.654646       -17.8138 
  12   1.0000      -0.611119       -16.6294 
  13   1.0000      -0.589871       -16.0512 
  14   1.0000      -0.565326       -15.3833 
  15   1.0000      -0.534158       -14.5352 
  16   1.0000      -0.494995       -13.4695 
  17   1.0000      -0.475197       -12.9308 
  18   1.0000      -0.447638       -12.1808 
  19   1.0000      -0.438908       -11.9433 
  20   1.0000      -0.433799       -11.8043 
  21   1.0000      -0.426943       -11.6177 
  22   1.0000      -0.422206       -11.4888 
  23   1.0000      -0.298132        -8.1126 
  24   0.0000       0.093294         2.5387 
  25   0.0000       0.100411         2.7323 
  26   0.0000       0.123670         3.3652 
  27   0.0000       0.143038         3.8923 
  28   0.0000       0.147430         4.0118 
  29   0.0000       0.160592         4.3699 
  30   0.0000       0.169534         4.6132 
  31   0.0000       0.170046         4.6272 
  32   0.0000       0.194039         5.2801 
  33   0.0000       0.210937         5.7399 
  34   0.0000       0.248206         6.7540 

                 SPIN DOWN ORBITALS
  NO   OCC          E(Eh)            E(eV) 
   0   1.0000     -20.010668      -544.5180 
   1   1.0000     -10.814770      -294.2849 
   2   1.0000     -10.813464      -294.2493 
   3   1.0000     -10.805810      -294.0410 
   4   1.0000     -10.805786      -294.0404 
   5   1.0000     -10.800205      -293.8885 
   6   1.0000      -1.104677       -30.0598 
   7   1.0000      -1.018394       -27.7119 
   8   1.0000      -0.864549       -23.5256 
   9   1.0000      -0.861527       -23.4433 
  10   1.0000      -0.703481       -19.1427 
  11   1.0000      -0.652604       -17.7582 
  12   1.0000      -0.609387       -16.5823 
  13   1.0000      -0.575707       -15.6658 
  14   1.0000      -0.537528       -14.6269 
  15   1.0000      -0.493555       -13.4303 
  16   1.0000      -0.474124       -12.9016 
  17   1.0000      -0.438339       -11.9278 
  18   1.0000      -0.433300       -11.7907 
  19   1.0000      -0.427365       -11.6292 
  20   1.0000      -0.422207       -11.4888 
  21   1.0000      -0.411534       -11.1984 
  22   1.0000      -0.307421        -8.3653 
  23   0.0000       0.024349         0.6626 
  24   0.0000       0.096495         2.6258 
  25   0.0000       0.109453         2.9784 
  26   0.0000       0.126313         3.4372 
  27   0.0000       0.143280         3.8988 
  28   0.0000       0.148190         4.0325 
  29   0.0000       0.161716         4.4005 
  30   0.0000       0.170504         4.6397 
  31   0.0000       0.171668         4.6713 
  32   0.0000       0.194240         5.2855 
  33   0.0000       0.212621         5.7857 
*Only the first 10 virtual orbitals were printed.

                    ********************************
                    * MULLIKEN POPULATION ANALYSIS *
                    ********************************

--------------------------------------------
MULLIKEN ATOMIC CHARGES AND SPIN POPULATIONS
--------------------------------------------
   0 C :   -0.081509   -0.002476
   1 C :   -0.142387   -0.000565
   2 C :   -0.081419   -0.002771
   3 C :   -0.160678    0.051718
   4 C :   -0.159900    0.049176
   5 H :    0.070430    0.001257
   6 H :    0.072760    0.003016
   7 H :    0.076322   -0.000507
   8 H :    0.086798   -0.000533
   9 H :    0.072594    0.003090
  10 H :    0.070455    0.001391
  11 H :    0.111866   -0.003497
  12 H :    0.111864   -0.003304
  13 O :   -0.274015    0.931446
  14 H :    0.226820   -0.027442
Sum of atomic charges         :    0.0000000
Sum of atomic spin populations:    1.0000000

-----------------------------------------------------
MULLIKEN REDUCED ORBITAL CHARGES AND SPIN POPULATIONS
-----------------------------------------------------
CHARGE
  0 C s       :     3.091768  s :     3.091768
      pz      :     1.014203  p :     2.872659
      px      :     0.981370
      py      :     0.877085
      dz2     :     0.019076  d :     0.110997
      dxz     :     0.029162
      dyz     :     0.016252
      dx2y2   :     0.025437
      dxy     :     0.021069
      f0      :     0.000748  f :     0.006086
      f+1     :     0.000742
      f-1     :     0.000575
      f+2     :     0.000494
      f-2     :     0.000797
      f+3     :     0.001432
      f-3     :     0.001298

  1 C s       :     3.127112  s :     3.127112
      pz      :     1.058307  p :     2.906789
      px      :     0.875034
      py      :     0.973448
      dz2     :     0.022822  d :     0.102390
      dxz     :     0.015376
      dyz     :     0.018159
      dx2y2   :     0.026335
      dxy     :     0.019699
      f0      :     0.000927  f :     0.006096
      f+1     :     0.000567
      f-1     :     0.000458
      f+2     :     0.000590
      f-2     :     0.000790
      f+3     :     0.001348
      f-3     :     0.001416

  2 C s       :     3.091739  s :     3.091739
      pz      :     1.019420  p :     2.872571
      px      :     0.975911
      py      :     0.877240
      dz2     :     0.016454  d :     0.111021
      dxz     :     0.032801
      dyz     :     0.015959
      dx2y2   :     0.024402
      dxy     :     0.021405
      f0      :     0.000671  f :     0.006088
      f+1     :     0.000872
      f-1     :     0.000537
      f+2     :     0.000432
      f-2     :     0.000800
      f+3     :     0.001443
      f-3     :     0.001333

  3 C s       :     3.176966  s :     3.176966
      pz      :     0.943646  p :     2.862625
      px      :     0.949971
      py      :     0.969008
      dz2     :     0.006707  d :     0.113232
      dxz     :     0.024175
      dyz     :     0.008606
      dx2y2   :     0.030363
      dxy     :     0.043380
      f0      :     0.001231  f :     0.007856
      f+1     :     0.000631
      f-1     :     0.000845
      f+2     :     0.001019
      f-2     :     0.000310
      f+3     :     0.001487
      f-3     :     0.002333

  4 C s       :     3.176698  s :     3.176698
      pz      :     0.942218  p :     2.862064
      px      :     0.950722
      py      :     0.969124
      dz2     :     0.007416  d :     0.113280
      dxz     :     0.023500
      dyz     :     0.008758
      dx2y2   :     0.030399
      dxy     :     0.043207
      f0      :     0.001240  f :     0.007858
      f+1     :     0.000627
      f-1     :     0.000848
      f+2     :     0.001026
      f-2     :     0.000299
      f+3     :     0.001473
      f-3     :     0.002344

  5 H s       :     0.888840  s :     0.888840
      pz      :     0.018872  p :     0.038660
      px      :     0.010843
      py      :     0.008945
      dz2     :     0.000590  d :     0.002070
      dxz     :     0.000642
      dyz     :     0.000593
      dx2y2   :     0.000116
      dxy     :     0.000129

  6 H s       :     0.885486  s :     0.885486
      pz      :     0.013074  p :     0.039654
      px      :     0.017412
      py      :     0.009169
      dz2     :     0.000558  d :     0.002100
      dxz     :     0.000417
      dyz     :     0.000264
      dx2y2   :     0.000349
      dxy     :     0.000512

  7 H s       :     0.882565  s :     0.882565
      pz      :     0.011503  p :     0.039041
      px      :     0.009450
      py      :     0.018088
      dz2     :     0.000460  d :     0.002071
      dxz     :     0.000150
      dyz     :     0.000451
      dx2y2   :     0.000336
      dxy     :     0.000673

  8 H s       :     0.872442  s :     0.872442
      pz      :     0.020068  p :     0.038649
      px      :     0.008726
      py      :     0.009854
      dz2     :     0.000545  d :     0.002112
      dxz     :     0.000726
      dyz     :     0.000743
      dx2y2   :     0.000035
      dxy     :     0.000063

  9 H s       :     0.885652  s :     0.885652
      pz      :     0.014264  p :     0.039654
      px      :     0.016213
      py      :     0.009176
      dz2     :     0.000601  d :     0.002100
      dxz     :     0.000415
      dyz     :     0.000338
      dx2y2   :     0.000309
      dxy     :     0.000438

 10 H s       :     0.888808  s :     0.888808
      pz      :     0.017938  p :     0.038666
      px      :     0.011780
      py      :     0.008948
      dz2     :     0.000611  d :     0.002071
      dxz     :     0.000574
      dyz     :     0.000540
      dx2y2   :     0.000163
      dxy     :     0.000182

 11 H s       :     0.849719  s :     0.849719
      pz      :     0.009959  p :     0.036510
      px      :     0.010559
      py      :     0.015993
      dz2     :     0.000129  d :     0.001904
      dxz     :     0.000256
      dyz     :     0.000305
      dx2y2   :     0.000784
      dxy     :     0.000429

 12 H s       :     0.849717  s :     0.849717
      pz      :     0.009935  p :     0.036514
      px      :     0.010565
      py      :     0.016014
      dz2     :     0.000133  d :     0.001904
      dxz     :     0.000253
      dyz     :     0.000302
      dx2y2   :     0.000783
      dxy     :     0.000434

 13 O s       :     3.887959  s :     3.887959
      pz      :     1.067053  p :     4.373564
      px      :     1.936490
      py      :     1.370021
      dz2     :     0.004000  d :     0.012097
      dxz     :     0.000126
      dyz     :     0.000829
      dx2y2   :     0.005897
      dxy     :     0.001246
      f0      :     0.000008  f :     0.000395
      f+1     :     0.000032
      f-1     :     0.000021
      f+2     :     0.000029
      f-2     :     0.000001
      f+3     :     0.000070
      f-3     :     0.000234

 14 H s       :     0.686147  s :     0.686147
      pz      :     0.016583  p :     0.078869
      px      :     0.035866
      py      :     0.026420
      dz2     :     0.000826  d :     0.008164
      dxz     :     0.000007
      dyz     :     0.001502
      dx2y2   :     0.002472
      dxy     :     0.003357


SPIN
  0 C s       :     0.000524  s :     0.000524
      pz      :    -0.000322  p :    -0.003140
      px      :    -0.000239
      py      :    -0.002580
      dz2     :    -0.000003  d :     0.000071
      dxz     :    -0.000218
      dyz     :     0.000337
      dx2y2   :    -0.000071
      dxy     :     0.000026
      f0      :     0.000037  f :     0.000069
      f+1     :    -0.000001
      f-1     :    -0.000001
      f+2     :     0.000010
      f-2     :     0.000018
      f+3     :     0.000002
      f-3     :     0.000004

  1 C s       :    -0.000728  s :    -0.000728
      pz      :     0.000444  p :    -0.000046
      px      :     0.000122
      py      :    -0.000612
      dz2     :     0.000061  d :     0.000226
      dxz     :    -0.000021
      dyz     :     0.000059
      dx2y2   :     0.000124
      dxy     :     0.000002
      f0      :    -0.000001  f :    -0.000016
      f+1     :    -0.000000
      f-1     :     0.000003
      f+2     :    -0.000010
      f-2     :    -0.000001
      f+3     :    -0.000002
      f-3     :    -0.000004

  2 C s       :     0.000462  s :     0.000462
      pz      :    -0.000711  p :    -0.003417
      px      :    -0.000008
      py      :    -0.002698
      dz2     :    -0.000073  d :     0.000112
      dxz     :    -0.000182
      dyz     :     0.000383
      dx2y2   :    -0.000025
      dxy     :     0.000008
      f0      :     0.000032  f :     0.000072
      f+1     :     0.000002
      f-1     :     0.000002
      f+2     :     0.000015
      f-2     :     0.000014
      f+3     :     0.000002
      f-3     :     0.000006

  3 C s       :     0.002491  s :     0.002491
      pz      :     0.042201  p :     0.047220
      px      :     0.001919
      py      :     0.003100
      dz2     :     0.001173  d :     0.001814
      dxz     :     0.000404
      dyz     :    -0.000015
      dx2y2   :     0.000194
      dxy     :     0.000058
      f0      :     0.000137  f :     0.000194
      f+1     :     0.000010
      f-1     :    -0.000045
      f+2     :     0.000051
      f-2     :    -0.000001
      f+3     :     0.000029
      f-3     :     0.000012

  4 C s       :     0.002242  s :     0.002242
      pz      :     0.040347  p :     0.044885
      px      :     0.001614
      py      :     0.002924
      dz2     :     0.000212  d :     0.001847
      dxz     :     0.001304
      dyz     :    -0.000004
      dx2y2   :     0.000302
      dxy     :     0.000033
      f0      :     0.000183  f :     0.000202
      f+1     :    -0.000049
      f-1     :    -0.000046
      f+2     :     0.000085
      f-2     :     0.000004
      f+3     :     0.000015
      f-3     :     0.000011

  5 H s       :     0.001093  s :     0.001093
      pz      :     0.000063  p :     0.000164
      px      :     0.000040
      py      :     0.000062
      dz2     :     0.000000  d :    -0.000000
      dxz     :    -0.000001
      dyz     :    -0.000000
      dx2y2   :    -0.000000
      dxy     :     0.000001

  6 H s       :     0.003056  s :     0.003056
      pz      :    -0.000026  p :    -0.000043
      px      :     0.000006
      py      :    -0.000024
      dz2     :     0.000001  d :     0.000003
      dxz     :    -0.000001
      dyz     :     0.000000
      dx2y2   :     0.000003
      dxy     :     0.000001

  7 H s       :    -0.000576  s :    -0.000576
      pz      :     0.000016  p :     0.000067
      px      :     0.000003
      py      :     0.000048
      dz2     :     0.000001  d :     0.000002
      dxz     :     0.000000
      dyz     :     0.000000
      dx2y2   :     0.000001
      dxy     :    -0.000000

  8 H s       :    -0.000525  s :    -0.000525
      pz      :     0.000009  p :    -0.000008
      px      :    -0.000001
      py      :    -0.000015
      dz2     :    -0.000000  d :     0.000000
      dxz     :     0.000000
      dyz     :     0.000002
      dx2y2   :    -0.000002
      dxy     :    -0.000000

  9 H s       :     0.003130  s :     0.003130
      pz      :    -0.000028  p :    -0.000044
      px      :     0.000009
      py      :    -0.000024
      dz2     :     0.000000  d :     0.000003
      dxz     :     0.000000
      dyz     :     0.000000
      dx2y2   :     0.000002
      dxy     :     0.000000

 10 H s       :     0.001227  s :     0.001227
      pz      :     0.000053  p :     0.000164
      px      :     0.000050
      py      :     0.000061
      dz2     :     0.000000  d :    -0.000000
      dxz     :    -0.000000
      dyz     :    -0.000000
      dx2y2   :    -0.000001
      dxy     :     0.000001

 11 H s       :    -0.003923  s :    -0.003923
      pz      :     0.000503  p :     0.000377
      px      :    -0.000041
      py      :    -0.000085
      dz2     :    -0.000002  d :     0.000049
      dxz     :     0.000016
      dyz     :     0.000020
      dx2y2   :     0.000006
      dxy     :     0.000009

 12 H s       :    -0.003705  s :    -0.003705
      pz      :     0.000418  p :     0.000353
      px      :     0.000019
      py      :    -0.000084
      dz2     :    -0.000002  d :     0.000048
      dxz     :     0.000018
      dyz     :     0.000018
      dx2y2   :     0.000004
      dxy     :     0.000010

 13 O s       :     0.011321  s :     0.011321
      pz      :     0.889200  p :     0.920127
      px      :     0.007875
      py      :     0.023052
      dz2     :    -0.000590  d :     0.000159
      dxz     :     0.000006
      dyz     :     0.000620
      dx2y2   :     0.000045
      dxy     :     0.000078
      f0      :     0.000011  f :    -0.000161
      f+1     :     0.000018
      f-1     :    -0.000220
      f+2     :     0.000027
      f-2     :     0.000000
      f+3     :     0.000003
      f-3     :     0.000001

 14 H s       :    -0.033892  s :    -0.033892
      pz      :     0.008323  p :     0.005315
      px      :    -0.002353
      py      :    -0.000655
      dz2     :    -0.000099  d :     0.001134
      dxz     :    -0.000000
      dyz     :     0.001195
      dx2y2   :     0.000174
      dxy     :    -0.000135



                     *******************************
                     * LOEWDIN POPULATION ANALYSIS *
                     *******************************

-------------------------------------------
LOEWDIN ATOMIC CHARGES AND SPIN POPULATIONS
-------------------------------------------
   0 C :   -0.019120    0.001224
   1 C :    0.003156   -0.000576
   2 C :   -0.019119    0.001315
   3 C :   -0.005527    0.048844
   4 C :   -0.005367    0.047577
   5 H :    0.014452    0.000543
   6 H :    0.014672    0.000792
   7 H :    0.004173   -0.000193
   8 H :    0.016161   -0.000094
   9 H :    0.014635    0.000823
  10 H :    0.014453    0.000608
  11 H :   -0.000092    0.002259
  12 H :   -0.000033    0.002165
  13 O :    0.139994    0.854623
  14 H :   -0.172439    0.040090

----------------------------------------------------
LOEWDIN REDUCED ORBITAL CHARGES AND SPIN POPULATIONS
----------------------------------------------------
CHARGE
  0 C s       :     2.689769  s :     2.689769
      pz      :     0.998712  p :     2.881735
      px      :     0.951584
      py      :     0.931438
      dz2     :     0.069755  d :     0.405038
      dxz     :     0.093278
      dyz     :     0.055438
      dx2y2   :     0.098523
      dxy     :     0.088045
      f0      :     0.004698  f :     0.042577
      f+1     :     0.004281
      f-1     :     0.005140
      f+2     :     0.004887
      f-2     :     0.005602
      f+3     :     0.009217
      f-3     :     0.008752

  1 C s       :     2.692356  s :     2.692356
      pz      :     1.008268  p :     2.873788
      px      :     0.911859
      py      :     0.953661
      dz2     :     0.084924  d :     0.389406
      dxz     :     0.054142
      dyz     :     0.063233
      dx2y2   :     0.099110
      dxy     :     0.087997
      f0      :     0.005757  f :     0.041294
      f+1     :     0.004753
      f-1     :     0.002597
      f+2     :     0.005639
      f-2     :     0.006074
      f+3     :     0.009197
      f-3     :     0.007277

  2 C s       :     2.689778  s :     2.689778
      pz      :     1.000880  p :     2.881717
      px      :     0.949353
      py      :     0.931484
      dz2     :     0.059830  d :     0.405049
      dxz     :     0.106587
      dyz     :     0.053732
      dx2y2   :     0.095113
      dxy     :     0.089787
      f0      :     0.004144  f :     0.042575
      f+1     :     0.005089
      f-1     :     0.005042
      f+2     :     0.004439
      f-2     :     0.005464
      f+3     :     0.009426
      f-3     :     0.008971

  3 C s       :     2.740126  s :     2.740126
      pz      :     0.816144  p :     2.821488
      px      :     1.040401
      py      :     0.964944
      dz2     :     0.033020  d :     0.400853
      dxz     :     0.060481
      dyz     :     0.034560
      dx2y2   :     0.112558
      dxy     :     0.160233
      f0      :     0.002700  f :     0.043059
      f+1     :     0.003619
      f-1     :     0.002963
      f+2     :     0.006826
      f-2     :     0.002048
      f+3     :     0.008425
      f-3     :     0.016478

  4 C s       :     2.740145  s :     2.740145
      pz      :     0.815349  p :     2.821205
      px      :     1.040855
      py      :     0.965002
      dz2     :     0.033335  d :     0.400951
      dxz     :     0.060051
      dyz     :     0.035320
      dx2y2   :     0.112917
      dxy     :     0.159328
      f0      :     0.002782  f :     0.043066
      f+1     :     0.003518
      f-1     :     0.002988
      f+2     :     0.006886
      f-2     :     0.001974
      f+3     :     0.008368
      f-3     :     0.016550

  5 H s       :     0.808743  s :     0.808743
      pz      :     0.066272  p :     0.148381
      px      :     0.042026
      py      :     0.040083
      dz2     :     0.009385  d :     0.028424
      dxz     :     0.008713
      dyz     :     0.007410
      dx2y2   :     0.001337
      dxy     :     0.001579

  6 H s       :     0.808892  s :     0.808892
      pz      :     0.051940  p :     0.147682
      px      :     0.056842
      py      :     0.038900
      dz2     :     0.007371  d :     0.028755
      dxz     :     0.007329
      dyz     :     0.003119
      dx2y2   :     0.005075
      dxy     :     0.005861

  7 H s       :     0.817806  s :     0.817806
      pz      :     0.047676  p :     0.149276
      px      :     0.039365
      py      :     0.062235
      dz2     :     0.006303  d :     0.028745
      dxz     :     0.001760
      dyz     :     0.007569
      dx2y2   :     0.005861
      dxy     :     0.007253

[...]
     40       0.000008   0.000004  -0.000198   0.000011  -0.000093  -0.000263
     41       0.000011   0.000027   0.000130  -0.000025   0.000083   0.000192
     42       0.000245  -0.000189   0.000341  -0.000376   0.000444  -0.000135
     43      -0.000266   0.000055   0.001336   0.000080   0.000166   0.001248
     44       0.000471  -0.000554  -0.000768   0.000009   0.000743  -0.000642
                 42         43         44    
      0      -0.002250   0.003030   0.000067
      1      -0.001491   0.002183  -0.000005
      2      -0.000794   0.000230  -0.000079
      3       0.000397   0.000031  -0.000003
      4      -0.000076   0.001778  -0.000122
      5      -0.000047   0.000569  -0.000166
      6      -0.002099  -0.002994  -0.000080
      7       0.001499   0.002191  -0.000015
      8       0.000944   0.000512  -0.000067
      9      -0.033616  -0.041938   0.000429
     10      -0.049329  -0.049835   0.000037
     11      -0.000686  -0.000355  -0.000192
     12      -0.032937   0.041854  -0.000459
     13       0.049007  -0.050269   0.000039
     14       0.004035  -0.004610  -0.000144
     15       0.001279  -0.004063  -0.000068
     16       0.002520  -0.004008   0.000506
     17      -0.004932   0.010729   0.000246
     18       0.018345  -0.020753   0.000099
     19       0.005030  -0.005788   0.000352
     20       0.015311  -0.015075  -0.000046
     21      -0.000763   0.000211   0.000106
     22       0.000785  -0.009075   0.000467
     23      -0.000434   0.004636   0.000330
     24      -0.000343  -0.000482   0.000032
     25       0.000156  -0.002501   0.001138
     26       0.000823  -0.009607   0.001768
     27       0.015958   0.019105   0.000021
     28      -0.004957  -0.005806   0.000342
     29      -0.016285  -0.017068  -0.000125
     30       0.001901   0.005281  -0.000004
     31      -0.002587  -0.004084   0.000489
     32       0.004926   0.010656   0.000234
     33       0.404872   0.405170  -0.000328
     34       0.579281   0.571683   0.000364
     35       0.007649   0.006841  -0.000008
     36       0.398053  -0.404453   0.000391
     37      -0.575662   0.576714   0.000228
     38      -0.048193   0.048123  -0.000000
     39       0.000191   0.000018  -0.000309
     40       0.000010   0.000109  -0.063058
     41      -0.000005   0.000435  -0.001035
     42      -0.002222  -0.000119   0.005210
     43      -0.000091   0.000630   0.997755
     44       0.000078  -0.002599   0.021749


-----------
IR SPECTRUM
-----------

 Mode   freq       eps      Int      T**2         TX        TY        TZ
       cm**-1   L/(mol*cm) km/mol    a.u.
----------------------------------------------------------------------------
  6:     83.34   0.006384   32.26  0.023905  (-0.153591  0.011558 -0.013461)
  7:    102.32   0.002007   10.14  0.006120  ( 0.039305  0.019237 -0.064845)
  8:    125.92   0.000893    4.51  0.002214  ( 0.000533  0.019114 -0.042988)
  9:    168.50   0.001220    6.16  0.002259  (-0.039246  0.006081 -0.026112)
 10:    177.22   0.006659   33.65  0.011725  (-0.104790  0.000340  0.027269)
 11:    406.24   0.000025    0.13  0.000020  ( 0.000965 -0.000384 -0.004300)
 12:    542.00   0.011850   59.88  0.006823  ( 0.006094 -0.006773  0.082095)
 13:    615.30   0.002092   10.57  0.001061  ( 0.001538 -0.003864  0.032303)
 14:    732.22   0.008531   43.11  0.003636  (-0.002831  0.004052 -0.060094)
 15:    780.92   0.000024    0.12  0.000010  ( 0.003107 -0.000075  0.000259)
 16:    831.15   0.000485    2.45  0.000182  ( 0.000678  0.003447  0.013024)
 17:    894.04   0.000326    1.65  0.000114  ( 0.010648  0.000073 -0.000627)
 18:    919.55   0.000076    0.38  0.000026  (-0.000271 -0.003569 -0.003597)
 19:    927.59   0.001867    9.44  0.000628  ( 0.025035  0.000096 -0.001192)
 20:    980.39   0.000066    0.33  0.000021  (-0.004401  0.000266  0.001228)
 21:    987.58   0.000333    1.69  0.000105  (-0.000339 -0.007476 -0.007026)
 22:   1052.48   0.000362    1.83  0.000107  (-0.010346 -0.000056  0.000565)
 23:   1075.08   0.002248   11.36  0.000653  ( 0.001338 -0.000833  0.025498)
 24:   1130.12   0.000544    2.75  0.000150  (-0.000675  0.000403 -0.012229)
 25:   1163.54   0.000279    1.41  0.000075  ( 0.008625 -0.000020 -0.000722)
 26:   1237.02   0.000000    0.00  0.000000  (-0.000111  0.000018  0.000023)
 27:   1245.03   0.000477    2.41  0.000120  ( 0.000493  0.003972  0.010175)
 28:   1318.37   0.000253    1.28  0.000060  (-0.007726 -0.000003  0.000426)
 29:   1334.99   0.000051    0.26  0.000012  (-0.003458 -0.000115 -0.000040)
 30:   1341.10   0.000298    1.50  0.000069  (-0.000051 -0.008057 -0.002084)
 31:   1395.59   0.000407    2.06  0.000091  ( 0.009538  0.000114 -0.000095)
 32:   1486.36   0.000727    3.67  0.000153  (-0.000874 -0.000770 -0.012297)
 33:   1491.27   0.000647    3.27  0.000135  (-0.011611  0.000018  0.000752)
 34:   1513.17   0.000726    3.67  0.000150  ( 0.000372  0.010986  0.005370)
 35:   1632.00   0.010969   55.43  0.002098  ( 0.002050 -0.017751  0.042169)
 36:   3030.89   0.005324   26.90  0.000548  (-0.004440  0.006745 -0.021975)
 37:   3032.66   0.008545   43.18  0.000879  (-0.029307 -0.000264  0.004507)
 38:   3084.84   0.004995   25.24  0.000505  (-0.000093  0.022324 -0.002626)
 39:   3099.54   0.004355   22.01  0.000438  ( 0.020390 -0.003365 -0.003376)
 40:   3100.42   0.003660   18.49  0.000368  ( 0.004863  0.016162  0.009137)
 41:   3137.26   0.004739   23.95  0.000471  ( 0.000966 -0.008425  0.019986)
 42:   3194.06   0.001072    5.42  0.000105  (-0.010219 -0.000052  0.000599)
 43:   3217.79   0.004023   20.33  0.000390  (-0.000399 -0.017752 -0.008654)
 44:   3789.34   0.004394   22.21  0.000362  (-0.000630  0.014137 -0.012712)

* The epsilon (eps) is given for a Dirac delta lineshape.
** The dipole moment derivative (T) already includes vibrational overlap.

The first frequency considered to be a vibration is 6
The total number of vibrations considered is 39


--------------------------
THERMOCHEMISTRY AT 298.15K
--------------------------

Temperature         ...   298.15 K
Pressure            ...     1.00 atm
Total Mass          ...    85.13 AMU
Quasi RRHO          ...     True
Cut-Off Frequency   ...     1.00 cm^-1

Throughout the following assumptions are being made:
  (1) The electronic state is orbitally nondegenerate
      but the spin degeneracy is treated
  (2) There are no thermally accessible electronically excited states
  (3) Hindered rotations indicated by low frequency modes are not
      treated as such but are treated as vibrations and this may
      cause some error
  (4) All equations used are the standard statistical mechanics
      equations for an ideal gas
  (5) All vibrations are strictly harmonic

freq.      83.34  E(vib)   ...       0.48 
freq.     102.32  E(vib)   ...       0.46 
freq.     125.92  E(vib)   ...       0.43 
freq.     168.50  E(vib)   ...       0.38 
freq.     177.22  E(vib)   ...       0.37 
freq.     406.24  E(vib)   ...       0.19 
freq.     542.00  E(vib)   ...       0.12 
freq.     615.30  E(vib)   ...       0.10 
freq.     732.22  E(vib)   ...       0.06 
freq.     780.92  E(vib)   ...       0.05 
freq.     831.15  E(vib)   ...       0.04 
freq.     894.04  E(vib)   ...       0.03 
freq.     919.55  E(vib)   ...       0.03 
freq.     927.59  E(vib)   ...       0.03 
freq.     980.39  E(vib)   ...       0.02 
freq.     987.58  E(vib)   ...       0.02 
freq.    1052.48  E(vib)   ...       0.02 
freq.    1075.08  E(vib)   ...       0.02 
freq.    1130.12  E(vib)   ...       0.01 
freq.    1163.54  E(vib)   ...       0.01 
freq.    1237.02  E(vib)   ...       0.01 
freq.    1245.03  E(vib)   ...       0.01 
freq.    1318.37  E(vib)   ...       0.01 
freq.    1334.99  E(vib)   ...       0.01 
freq.    1341.10  E(vib)   ...       0.01 
freq.    1395.59  E(vib)   ...       0.00 
freq.    1486.36  E(vib)   ...       0.00 
freq.    1491.27  E(vib)   ...       0.00 
freq.    1513.17  E(vib)   ...       0.00 
freq.    1632.00  E(vib)   ...       0.00 
freq.    3030.89  E(vib)   ...       0.00 
freq.    3032.66  E(vib)   ...       0.00 
freq.    3084.84  E(vib)   ...       0.00 
freq.    3099.54  E(vib)   ...       0.00 
freq.    3100.42  E(vib)   ...       0.00 
freq.    3137.26  E(vib)   ...       0.00 
freq.    3194.06  E(vib)   ...       0.00 
freq.    3217.79  E(vib)   ...       0.00 
freq.    3789.34  E(vib)   ...       0.00 

------------
INNER ENERGY
------------

The inner energy is: U= E(el) + E(ZPE) + E(vib) + E(rot) + E(trans)
    E(el)   - is the total energy from the electronic structure calculation
              = E(kin-el) + E(nuc-el) + E(el-el) + E(nuc-nuc)
    E(ZPE)  - the the zero temperature vibrational energy from the frequency calculation
    E(vib)  - the the finite temperature correction to E(ZPE) due to population
              of excited vibrational states
    E(rot)  - is the rotational thermal energy
    E(trans)- is the translational thermal energy

Summary of contributions to the inner energy U:
Electronic energy                ...   -270.66483641 Eh
Zero point energy                ...      0.12843672 Eh      80.60 kcal/mol
Thermal vibrational correction   ...      0.00471174 Eh       2.96 kcal/mol
Thermal rotational correction    ...      0.00141627 Eh       0.89 kcal/mol
Thermal translational correction ...      0.00141627 Eh       0.89 kcal/mol
-----------------------------------------------------------------------
Total thermal energy                   -270.52885541 Eh


Summary of corrections to the electronic energy:
(perhaps to be used in another calculation)
Total thermal correction                  0.00754428 Eh       4.73 kcal/mol
Non-thermal (ZPE) correction              0.12843672 Eh      80.60 kcal/mol
-----------------------------------------------------------------------
Total correction                          0.13598100 Eh      85.33 kcal/mol


--------
ENTHALPY
--------

The enthalpy is H = U + kB*T
                kB is Boltzmann's constant
Total thermal energy              ...   -270.52885541 Eh 
Thermal Enthalpy correction       ...      0.00094421 Eh       0.59 kcal/mol
-----------------------------------------------------------------------
Total Enthalpy                    ...   -270.52791120 Eh


Note: Only C1 symmetry has been detected, increase convergence thresholds 
      if your molecule has a higher symmetry. Symmetry factor of 1.0 is   
      used for the rotational entropy correction. 
 

Note: Rotational entropy computed according to Herzberg 
Infrared and Raman Spectra, Chapter V,1, Van Nostrand Reinhold, 1945 
Point Group:  C1, Symmetry Number:   1  
Rotational constants in cm-1:     0.145326     0.104078     0.096428 

Vibrational entropy computed according to the QRRHO of S. Grimme
Chem.Eur.J. 2012 18 9955 using a reference frequency of 100.0 cm-1


-------
ENTROPY
-------

The entropy contributions are T*S = T*(S(el)+S(vib)+S(rot)+S(trans))
     S(el)   - electronic entropy
     S(vib)  - vibrational entropy
     S(rot)  - rotational entropy
     S(trans)- translational entropy
The entropies will be listed as multiplied by the temperature to get
units of energy

Electronic entropy                ...      0.00065446 Eh      0.41 kcal/mol
Vibrational entropy               ...      0.00844005 Eh      5.30 kcal/mol
Rotational entropy                ...      0.01259372 Eh      7.90 kcal/mol
Translational entropy             ...      0.01864317 Eh     11.70 kcal/mol
-----------------------------------------------------------------------
Final entropy term                ...      0.04033140 Eh     25.31 kcal/mol

In case the symmetry of your molecule has not been determined correctly
or in case you have a reason to use a different symmetry number we print 
out the resulting rotational entropy values for sn=1,12:

 non-linear molecules -----------------------------------
|  sn= 1 | S(rot)=       0.01259372 Eh      7.90 kcal/mol|
|  sn= 2 | S(rot)=       0.01193927 Eh      7.49 kcal/mol|
|  sn= 3 | S(rot)=       0.01155643 Eh      7.25 kcal/mol|
|  sn= 4 | S(rot)=       0.01128481 Eh      7.08 kcal/mol|
|  sn= 5 | S(rot)=       0.01107412 Eh      6.95 kcal/mol|
|  sn= 6 | S(rot)=       0.01090198 Eh      6.84 kcal/mol|
|  sn= 7 | S(rot)=       0.01075643 Eh      6.75 kcal/mol|
|  sn= 8 | S(rot)=       0.01063035 Eh      6.67 kcal/mol|
|  sn= 9 | S(rot)=       0.01051914 Eh      6.60 kcal/mol|
|  sn=10 | S(rot)=       0.01041966 Eh      6.54 kcal/mol|
|  sn=11 | S(rot)=       0.01032967 Eh      6.48 kcal/mol|
|  sn=12 | S(rot)=       0.01024752 Eh      6.43 kcal/mol|
 linear molecules ---------------------------------------
|  Dinfh | S(rot)=       0.00753420 Eh      4.73 kcal/mol|
|  Cinfv | S(rot)=       0.00818866 Eh      5.14 kcal/mol|
 --------------------------------------------------------


-------------------
GIBBS FREE ENERGY
-------------------

The Gibbs free energy is G = H - T*S

Total enthalpy                    ...   -270.52791120 Eh 
Total entropy correction          ...     -0.04033140 Eh    -25.31 kcal/mol
-----------------------------------------------------------------------
Final Gibbs free energy         ...   -270.56824260 Eh

For completeness - the Gibbs free energy minus the electronic energy
G-E(el)                           ...      0.09659381 Eh     60.61 kcal/mol



--------------------------------
SUGGESTED CITATIONS FOR THIS RUN
--------------------------------

Below you find a list of papers that are relevant to this ORCA run
We neither can nor want to force you to cite these papers, but we appreciate if you do
You receive ORCA, which is the product of decades of hard work by many enthusiastic individuals, for free
The only thing we kindly ask in return is that you cite our papers,
We deeply appreciate it, if you show your appreciation for ORCA by not just citing the generic ORCA reference.

Please note that relegating all ORCA citations to the supporting information does *not* help us.
SI sections are not indexed - citations you put there will not count into any citation statistics
But we need these citations in order to attract the funding resources that allow us to do what we are doing

Therefore, if you are a happy ORCA user, please consider citing a few of the papers listed below in the main body of your paper

In addition to the list printed below, the program has created the file opt.bibtex that contains the list in bibtex format
You can import this file easily into all common literature databanks and citation aid programs

It goes without saying that in many instances, there are alternative algorithms to achieve similar
results as the ones you have gotten from ORCA. It is, of course, also the case that in some instances
ORCA just re-implements algorithms worked out by others. We are fully aware of that and we are also
fully appreciative of our colleagues work. Hence this citation list should not be read as indicating
that the listed papers, which are focused on our own work, are the only ones worth citing. It simply
meant to make it easier for users to cite ORCA specific papers. It is not a substitute for doing your
own literature research and citing the relevant literature in a scientifically appropriate manner.

List of essential papers. We consider these as the minimum necessary citations

  1. Neese, F.
     Software update: the ORCA program system, version 6.0
     WIRES Comput. Molec. Sci. 2025 15(1), e70019
     doi.org/10.1002/wcms.70019

List of papers to cite with high priority. The work reported in these papers was absolutely
necessary for this run to complete.
Our perspective: the developers of density functionals and basis sets usually get cited in chemistry papers
Good! But without the algorithms to do something with them, the functionals or basis sets would not do anything.
Hence, in our opinion, the algorithm design and method developments papers are equally worthy of getting cited

  1. Neese, F.
     An improvement of the resolution of the identity approximation for the formation of the Coulomb matrix
     J. Comp. Chem. 2003 24(14), 1740-1747
     doi.org/10.1002/jcc.10318
  2. Neese, F.; Schwabe, T.; Grimme, S.
     Analytic derivatives for perturbatively corrected 'double hybrid' density functionals: Theory, implementation, and applications
     J. Chem. Phys. 2007 126(12), Art. No. 124115
     doi.org/10.1063/1.2712433
  3. Neese, F.; Wennmohs, F.; Hansen, A.; Becker, U.
     Efficient, approximate and parallel Hartree-Fock and hybrid DFT calculations. A 'chain-of-spheres' algorithm for the Hartree-Fock exchange
     Chem. Phys. 2009 356(1-3), 98-109
     doi.org/10.1016/j.chemphys.2008.10.036
  4. Kossmann, S.; Neese, F.
     Efficient Structure Optimization with Second-Order Many-Body Perturbation Theory: The RIJCOSX-MP2 Method
     J. Theo. Comp. Chem. 2010 6 , 2325-2338
     doi.org/10.1021/ct100199k
  5. Caldeweyher, E.; Bannwarth, C.; Grimme, S.
     Extension of the D3 dispersion coefficient model
     J. Chem. Phys. 2017 147 , 034112
     doi.org/10.1063/1.4993215
  6. Caldeweyher, E.; Ehlert, S.; Hansen, A.; Neugebauer, H.; Spicher, S.; Bannwarth, C.; Grimme, S.
     A generally applicable atomic-charge dependent London dispersion correction
     J. Chem. Phys. 2019 150 , 154122
     doi.org/10.1063/1.5090222
  7. Helmich-Paris, B.; de Souza, B.; Neese, F.; Izsák, R.
     An improved chain of spheres for exchange algorithm
     J. Chem. Phys. 2021 155(10), 104109
     doi.org/10.1063/5.0058766
  8. Neese, F.
     The SHARK Integral Generation and Digestion System
     J. Comp. Chem. 2022 44(3), 381
     doi.org/10.1002/jcc.26942

List of suggested additional citations. These are papers that are important in the 'surrounding' of 
of this run, or papers that preceded the highly important papers. If you like your results we are grateful for a citation.

  1. Izsak, R.; Neese, F.
     An overlap fitted chain of spheres exchange method
     J. Chem. Phys. 2011 135 , 144105
     doi.org/10.1063/1.3646921
  2. Izsak, R.; Hansen, A.; Neese, F.
     The resolution of identity and chain of spheres approximations for the LPNO-CCSD singles Fock term
     Molec. Phys. 2012 110 , 2413-2417
     doi.org/10.1080/00268976.2012.687466
  3. Neese, F.
     The ORCA program system
     WIRES Comput. Molec. Sci. 2012 2(1), 73-78
     doi.org/10.1002/wcms.81
  4. Izsak, R.; Neese, F.; Klopper, W.
     Robust fitting techniques in the chain of spheres approximation to the Fock exchange: The role of the complementary space
     J. Chem. Phys. 2013 139 , 
     doi.org/10.1063/1.4819264
  5. Neese, F.
     Software update: the ORCA program system, version 4.0
     WIRES Comput. Molec. Sci. 2018 8(1), 1-6
     doi.org/10.1002/wcms.1327
  6. Neese, F.; Wennmohs, F.; Becker, U.; Riplinger, C.
     The ORCA quantum chemistry program package
     J. Chem. Phys. 2020 152(22), 224108
     doi.org/10.1063/5.0004608
  7. Neese, F.
     Software update: The ORCA program system—Version 5.0
     WIRES Comput. Molec. Sci. 2022 12(1), e1606
     doi.org/10.1002/wcms.1606

List of optional additional citations

  1. Neese, F.
     Approximate second-order SCF convergence for spin unrestricted wavefunctions
     Chem. Phys. Lett. 2000 325(1-3), 93-98
     doi.org/10.1016/s0009-2614(00)00662-x

Timings for individual modules:

Sum of individual times          ...     7603.617 sec (= 126.727 min)
Startup calculation              ...       25.182 sec (=   0.420 min)   0.3 %
SCF iterations                   ...      209.124 sec (=   3.485 min)   2.8 %
Property calculations            ...        2.593 sec (=   0.043 min)   0.0 %
MP2 module                       ...      313.232 sec (=   5.221 min)   4.1 %
Geometry relaxation              ...        0.114 sec (=   0.002 min)   0.0 %
Numerical frequency calculation  ...     7053.373 sec (= 117.556 min)  92.8 %
                             ****ORCA TERMINATED NORMALLY****
TOTAL RUN TIME: 0 days 2 hours 5 minutes 16 seconds 275 msec
