
                                 *****************
                                 * O   R   C   A *
                                 *****************

                                            #,                                       
                                            ###                                      
                                            ####                                     
                                            #####                                    
                                            ######                                   
                                           ########,                                 
                                     ,,################,,,,,                         
                               ,,#################################,,                 
                          ,,##########################################,,             
                       ,#########################################, ''#####,          
                    ,#############################################,,   '####,        
                  ,##################################################,,,,####,       
                ,###########''''           ''''###############################       
              ,#####''   ,,,,##########,,,,          '''####'''          '####       
            ,##' ,,,,###########################,,,                        '##       
           ' ,,###''''                  '''############,,,                           
         ,,##''                                '''############,,,,        ,,,,,,###''
      ,#''                                            '''#######################'''  
     '                                                          ''''####''''         
             ,#######,   #######,   ,#######,      ##                                
            ,#'     '#,  ##    ##  ,#'     '#,    #''#        ,####,    ,#,          
            ##       ##  ##   ,#'  ##            #'  '#       #'       ,# #          
            ##       ##  #######   ##           ,######,      #####,      #          
            '#,     ,#'  ##    ##  '#,     ,#' ,#      #,     #,   #      #          
             '#######'   ##     ##  '#######'  #'      '#     '####' #    #          



                #########################################################
                #                        -***-                          #
                #          Department of theory and spectroscopy        #
                #                                                       #
                #                      Frank Neese                      #
                #                                                       #
                #     Directorship, Architecture, Infrastructure        #
                #                    SHARK, DRIVERS                     #
                #        Core code/Algorithms in most modules           #
                #                                                       #
                #        Max Planck Institute fuer Kohlenforschung      #
                #                Kaiser Wilhelm Platz 1                 #
                #                 D-45470 Muelheim/Ruhr                 #
                #                      Germany                          #
                #                                                       #
                #                  All rights reserved                  #
                #                        -***-                          #
                #########################################################


                         Program Version 6.1.1  -  RELEASE   -
                                (GIT: $487d211c$)
                          ($2025-11-21 10:33:24 +0100$)


 With contributions from (in alphabetic order):
[Max-Planck-Institut fuer Kohlenforschung]                               
  Daniel Aravena         : Magnetic Suceptibility                        
  Michael Atanasov       : Ab Initio Ligand Field Theory (pilot matlab implementation)
  Alexander A. Auer      : GIAO ZORA, VPT2 properties, NMR spectrum      
  Ute Becker             : All parallelization in ORCA, NUMFREQ, NUMCALC 
  Giovanni Bistoni       : ED, misc. LED, open-shell LED, HFLD           
  Dmytro Bykov           : pre 5.0 version of the SCF Hessian            
  Marcos Casanova-Páez   : Triplet and SCS-CIS(D). UHF-(DLPNO)-IP/EA/STEOM-CCSD. UHF-CVS-IP/STEOM-CCSD   
  Vijay G. Chilkuri      : MRCI spin determinant printing, contributions to CSF-ICE 
  Pauline Colinet        : FMM embedding                                 
  Dipayan Datta          : RHF DLPNO-CCSD density                        
  Achintya Kumar Dutta   : EOM-CC, STEOM-CC                              
  Nicolas Foglia         : Exact transition moments, OPA infrastructure, MCD improvements    
  Dmitry Ganyushin       : Spin-Orbit,Spin-Spin,Magnetic field MRCI      
  Miquel Garcia-Rates    : C-PCM and meta-GGA Hessian, CCSD/C-PCM, Gaussian charge scheme 
  Tiago L. C. Gouveia    : GS-ROHF, GS-ROCIS                             
  Yang Guo               : DLPNO-NEVPT2, F12-NEVPT2, CIM, IAO-localization        
  Andreas Hansen         : Spin unrestricted coupled pair/coupled cluster methods 
  Ingolf Harden          : AUTO-CI MPn and infrastructure                
  Benjamin Helmich-Paris : MC-RPA, TRAH-(SCF,CASSCF), AVAS, COSX integrals, SCF dyn. polar., MC-PDFT, srDFT 
  Lee Huntington         : MR-EOM, pCC                                   
  Robert Izsak           : Overlap fitted RIJCOSX, COSX-SCS-MP3, EOM     
  Riya Kayal             : Wick's Theorem for AUTO-CI, AUTO-CI UHF-CCSDT 
  Emily Kempfer          : AUTO-CI RHF CISDT and CCSDT, approximate NEVPT4
  Christian Kollmar      : KDIIS, OOCD, Brueckner-CCSD(T), CCSD density, CASPT2, CASPT2-K, improved NEVPT2 
  Axel Koslowski         : Symmetry handling                             
  Simone Kossmann        : meta-GGA functionals, TD-DFT gradient, OOMP2, (MP2 Hessian; deprecated post 5.0) 
  Lucas Lang             : DCDCAS, Hyperfine gauge corrections, ICE-SOC+SSC
  Marvin Lechner         : AUTO-CI (C++ implementation), FIC-MRCC        
  Spencer Leger          : CASSCF response                               
  Dagmar Lenk            : GEPOL surface, SMD, ORCA-2-JSON               
  Dimitrios Liakos       : Extrapolation schemes; Compound Job, Property file
  Dimitrios Manganas     : Further ROCIS development; embedding schemes. LFT, Crystal Embedding 
  Dimitrios Pantazis     : SARC Basis sets                               
  Anastasios Papadopoulos: AUTO-CI, single reference methods and gradients 
  Taras Petrenko         : pre 6.0 DFT Hessian and TD-DFT gradient,  ECA, NRVS 
  Petra Pikulova         : Analytic Raman intensities                    
  Peter Pinski           : DLPNO-MP2, DLPNO-MP2 Gradient                 
  Shashank Vittal Rao    : ES-AILFT, MagRelax                            
  Christoph Reimann      : Effective Core Potentials                     
  Marius Retegan         : Local ZFS, SOC                                
  Christoph Riplinger    : Optimizer, TS searches, QM/MM, DLPNO-CCSD(T), (RO)-DLPNO pert. Triples 
  Michael Roemelt        : Original ROCIS implementation, recursive CI coupling coefficients
  Masaaki Saitow         : Open-shell DLPNO-CCSD energy and density      
  Barbara Sandhoefer     : DKH picture change effects                    
  Yorick L. A. Schmerwitz: GMF and freeze-and-release deltaSCF, NEB S-IDPP initial path                    
  Kantharuban Sivalingam : CASSCF convergence/infrastructure, NEVPT2, NEVPT3, NEVPT4(SD), FIC-MRCI and CEPA variants
  Bernardo de Souza      : ESD, SOC TD-DFT                               
  Georgi L. Stoychev     : AutoAux, RI-MP2 NMR, DLPNO-MP2 response, X2C  
  Van Anh Tran           : RI-MP2 g-tensors                              
  Willem Van den Heuvel  : Paramagnetic NMR                              
  Zikuan Wang            : NOTCH, Electric field optimization            
  Frank Wennmohs         : Technical directorship and infrastructure     
  Hang Xu                : AUTO-CI-Response properties                   
                                                                         
[FACCTs GmbH]                                                            
  Markus Bursch, Nicolas Foglia, Miquel Garcia-Rates, Ingolf Harden, Hagen Neugebauer, Anastasios Papadopoulos, 
  Christoph Riplinger, Bernardo de Souza, Georgi L. Stoychev                                                    
                                                                 
  APM, various basis sets, CI-OPT, improved COSX, DLPNO-Multilevel,           
  DOCKER, DRACO, updates on ESD, Fragmentator, GOAT, IRC, LR-CPCM, L-BFGS, MBIS, meta-GGA TD-DFT gradient, ML-optimized integration grids, 
  MM, NACMEs, nearIR, NEB, NEB-TS, NL-DFT gradient (VV10), 2- and 3-layer-ONIOM, interface openCOSMO-RS, QMMM,   
  Crystal-QMMM, RESP, rigid body optimization, SF, symmetry and pop. for TD-DFT, various functionals, SOLVATOR                                   
                                                                         
[Other institutions]                                                     
  V. Asgeirsson          : NEB                                           
  Christoph Bannwarth    : sTDA-DFT, sTD-DFT, PBEh-3c, B97-3c, D3        
  Giovanni Bistoni       : ETS/NOCV, ADLD/ADEX, COVALED                  
  Martin Brehm           : Molecular dynamics                            
  Ronald Cardenas        : ETS/NOCV                                      
  Martina Colucci        : COVALED                                       
  Sebastian Ehlert       : rSCAN, r2SCAN, r2SCAN-3c, D4, dhf basis sets  
  Marvin Friede          : D4 for Fr, Ra, Ac-Lr                          
  Lars Goerigk           : TD-DFT with DH, B97 family of functionals     
  Stefan Grimme          : VdW corrections, initial TS optimization, DFT functionals, gCP, sTDA/sTD-DF 
  Waldemar Hujo          : DFT-NL                                        
  H. Jonsson             : NEB                                           
  Holger Kruse           : gCP                                           
  Marcel Mueller         : wB97X-3c, vDZP basis set                      
  Hagen Neugebauer       : wr2SCAN, Native XTB                           
  Gianluca Regni         : ADLD/ADEX                                     
  Tobias Risthaus        : pre 6.0 range-separated hybrid DFT and stability analysis
  Lukas Wittmann         : regularized MP2, r2SCAN double-hybrids, wr2SCAN        
                                                                         
We gratefully acknowledge several colleagues who have allowed us to      
interface, adapt or use parts of their codes:                            
  Ed Valeev, F. Pavosevic, A. Kumar             : LibInt (2-el integral package), F12 methods 
  Garnet Chan, S. Sharma, J. Yang, R. Olivares  : DMRG                   
  Ulf Ekstrom                                   : XCFun DFT Library      
  Mihaly Kallay                                 : mrcc  (arbitrary order and MRCC methods)
  Frank Weinhold                                : gennbo (NPA and NBO analysis)           
  Simon Mueller                                 : openCOSMO-RS                            
  Christopher J. Cramer and Donald G. Truhlar   : smd solvation model                     
  S Lehtola, MJT Oliveira, MAL Marques          : LibXC Library                           
  Liviu Ungur et al                             : ANISO software                          


 Your calculation uses the libint2 library for the computation of 2-el integrals
 For citations please refer to: http://libint.valeyev.net

 Your ORCA version has been built with support for libXC version: 7.0.0
 For citations please refer to: https://libxc.gitlab.io

 This ORCA versions uses:
   CBLAS   interface :  Fast vector & matrix operations
   LAPACKE interface :  Fast linear algebra routines
   SCALAPACK package :  Parallel linear algebra routines
   Shared memory     :  Shared parallel matrices
   BLAS/LAPACK       :  OpenBLAS 0.3.29  USE64BITINT DYNAMIC_ARCH NO_AFFINITY Zen SINGLE_THREADED
        Core in use  :  Zen
   Copyright (c) 2011-2014, The OpenBLAS Project


  ***********************************
  * Starting time: Tue Mar 10 20:58:36 2026
  * Host name:     ra2-20
  * Process ID:    2389551
  * Working dir.:  /tmp/lscratch/avcopan/43483554
  ***********************************

NOTE: MaxCore=9000 MB was set to SCF,MP2,MDCI,CIPSI,MRCI,RASCI and CIS
      => If you want to overwrite this, your respective input block should be placed after the MaxCore statement


***************************************
The coordinates will be read from file: opt.xyz
***************************************


================================================================================

----- Orbital basis set information -----
Your calculation utilizes the basis: cc-pVDZ-F12 

----- AuxC basis set information -----
Your calculation utilizes the auxiliary basis: cc-pVTZ/C 
  Obtained from the EMSL Basis Set Exchange (bse.pnl.gov) Feb. 2017
  H-He, B-F, Al-Ar, Ga-Kr : F. Weigend, A. Kohn, C. Hattig, J. Chem. Phys. 116, 3175 (2002)
             Li-Be, Na-Mg : C. Haettig, Phys. Chem. Chem. Phys. 7, 59 (2005)
                       Ne : C. Haettig, Phys. Chem. Chem. Phys. 7, 59 (2005)
                            F. Weigend, A. Kohn, C. Hattig, J. Chem. Phys. 116, 3175 (2002)
                    Sc-Zn : J. G. Hill, J. A. Platts, J. Chem. Phys. 128, 044104 (2008)

----- CABS information -----
Your calculation utilizes the basis: cc-pVDZ-F12 


                    <<< The CABS basis set will be decontracted >>>

================================================================================
                                        WARNINGS
                       Please study these warnings very carefully!
================================================================================


WARNING: Post HF methods need fully converged wavefunctions
  ===> : Setting SCFConvForced true
         You can overwrite this default with %scf ConvForced false 


WARNING: MDCI localization with Augmented Hessian Foster-Boys
  ===> : Switching off randomization!

WARNING: UseCISUpdate is  only available for RHF calculations...
  ===> : Setting UseCISUpdate = false 

================================================================================
                                       INPUT FILE
================================================================================
NAME = sp.inp
|  1> # 
|  2> % MaxCore 9000
|  3> ! PAL8
|  4> ! uhf ccsd(t)-f12/ri cc-pvdz-f12 cc-pvdz-f12-cabs cc-pvtz/c
|  5> * xyzfile 0 2 opt.xyz
|  6> 
|  7> 
|  8>                          ****END OF INPUT****
================================================================================

                       ****************************
                       * Single Point Calculation *
                       ****************************

---------------------------------
CARTESIAN COORDINATES (ANGSTROEM)
---------------------------------
  C      1.930950    1.427634   -0.090479
  C      0.719011    2.301667    0.302419
  C     -0.527904    1.429585    0.034411
  C      0.030049    0.031359    0.025011
  C      1.372730    0.030295   -0.043207
  H      2.286973    1.652033   -1.102790
  H      2.776429    1.561067    0.586530
  H      0.692277    3.247992   -0.238530
  H      0.773322    2.521369    1.368318
  H     -1.300235    1.564356    0.793576
  H     -0.984309    1.654616   -0.936641
  H     -0.591214   -0.855867    0.011194
  H      1.987996   -0.857900   -0.119801
  O      0.825986    0.045003    2.408974
  H      0.821390   -0.922505    2.394069

----------------------------
CARTESIAN COORDINATES (A.U.)
----------------------------
  NO LB      ZA    FRAG     MASS         X           Y           Z
   0 C     6.0000    0    12.011    3.648966    2.697837   -0.170981
   1 C     6.0000    0    12.011    1.358734    4.349521    0.571489
   2 C     6.0000    0    12.011   -0.997594    2.701524    0.065028
   3 C     6.0000    0    12.011    0.056785    0.059259    0.047264
   4 C     6.0000    0    12.011    2.594084    0.057249   -0.081649
   5 H     1.0000    0     1.008    4.321752    3.121891   -2.083971
   6 H     1.0000    0     1.008    5.246691    2.949990    1.108381
   7 H     1.0000    0     1.008    1.308213    6.137816   -0.450756
   8 H     1.0000    0     1.008    1.461367    4.764697    2.585747
   9 H     1.0000    0     1.008   -2.457089    2.956204    1.499640
  10 H     1.0000    0     1.008   -1.860074    3.126771   -1.769995
  11 H     1.0000    0     1.008   -1.117233   -1.617355    0.021155
  12 H     1.0000    0     1.008    3.756768   -1.621195   -0.226390
  13 O     8.0000    0    15.999    1.560888    0.085044    4.552302
  14 H     1.0000    0     1.008    1.552202   -1.743282    4.524135

--------------------------------
INTERNAL COORDINATES (ANGSTROEM)
--------------------------------
 C      0   0   0     0.000000000000     0.00000000     0.00000000
 C      1   0   0     1.545023877274     0.00000000     0.00000000
 C      2   1   0     1.545041399196   105.64263737     0.00000000
 C      3   2   1     1.505469213746   103.07402540    20.48064306
 C      4   3   2     1.344412814666   111.78914210   346.83695275
 H      1   2   3     1.096303500627   111.94769528    97.50548871
 H      1   2   3     1.091320965262   112.38231370   218.25721205
 H      2   1   3     1.090353593477   112.58490113   236.74284899
 H      2   1   3     1.089660546890   108.88788345   116.81386236
 H      3   2   1     1.091324565738   112.38162033   141.74565234
 H      3   2   1     1.096305619292   111.94818316   262.49540293
 H      4   3   2     1.083203245021   123.24657758   170.46565912
 H      5   4   3     1.083193637277   124.85600000   183.69535060
 O      5   4   3     2.512436690579    74.52227153    90.44013857
 H     14   5   4     0.967633713372    88.86237571    89.49635529

---------------------------
INTERNAL COORDINATES (A.U.)
---------------------------
 C      0   0   0     0.000000000000     0.00000000     0.00000000
 C      1   0   0     2.919671998418     0.00000000     0.00000000
 C      2   1   0     2.919705110051   105.64263737     0.00000000
 C      3   2   1     2.844924517030   103.07402540    20.48064306
 C      4   3   2     2.540572030653   111.78914210   346.83695275
 H      1   2   3     2.071713375843   111.94769528    97.50548871
 H      1   2   3     2.062297748551   112.38231370   218.25721205
 H      2   1   3     2.060469680809   112.58490113   236.74284899
 H      2   1   3     2.059160012560   108.88788345   116.81386236
 H      3   2   1     2.062304552465   112.38162033   141.74565234
 H      3   2   1     2.071717379542   111.94818316   262.49540293
 H      4   3   2     2.046957480465   123.24657758   170.46565912
 H      5   4   3     2.046939324460   124.85600000   183.69535060
 O      5   4   3     4.747817274009    74.52227153    90.44013857
 H     14   5   4     1.828562716223    88.86237571    89.49635529

---------------------
BASIS SET INFORMATION
---------------------
There are 3 groups of distinct atoms

 Group   1 Type C   : 19s6p2d contracted to 5s5p2d pattern {88111/21111/11}
 Group   2 Type H   : 5s2p contracted to 3s2p pattern {311/11}
 Group   3 Type O   : 19s6p2d contracted to 5s5p2d pattern {88111/21111/11}

Atom   0C    basis set group =>   1
Atom   1C    basis set group =>   1
Atom   2C    basis set group =>   1
Atom   3C    basis set group =>   1
Atom   4C    basis set group =>   1
Atom   5H    basis set group =>   2
Atom   6H    basis set group =>   2
Atom   7H    basis set group =>   2
Atom   8H    basis set group =>   2
Atom   9H    basis set group =>   2
Atom  10H    basis set group =>   2
Atom  11H    basis set group =>   2
Atom  12H    basis set group =>   2
Atom  13O    basis set group =>   3
Atom  14H    basis set group =>   2
---------------------------------
AUXILIARY/C BASIS SET INFORMATION
---------------------------------
There are 3 groups of distinct atoms

 Group   1 Type C   : 8s6p5d3f1g contracted to 8s6p5d3f1g pattern {11111111/111111/11111/111/1}
 Group   2 Type H   : 4s3p2d1f contracted to 4s3p2d1f pattern {1111/111/11/1}
 Group   3 Type O   : 8s6p5d3f1g contracted to 8s6p5d3f1g pattern {11111111/111111/11111/111/1}

Atom   0C    basis set group =>   1
Atom   1C    basis set group =>   1
Atom   2C    basis set group =>   1
Atom   3C    basis set group =>   1
Atom   4C    basis set group =>   1
Atom   5H    basis set group =>   2
Atom   6H    basis set group =>   2
Atom   7H    basis set group =>   2
Atom   8H    basis set group =>   2
Atom   9H    basis set group =>   2
Atom  10H    basis set group =>   2
Atom  11H    basis set group =>   2
Atom  12H    basis set group =>   2
Atom  13O    basis set group =>   3
Atom  14H    basis set group =>   2
--------------
CABS BASIS SET
--------------
There are 3 groups of distinct atoms

 Group   1 Type C   : 15s10p6d3f1g contracted to 15s10p6d3f1g pattern {111111111111111/1111111111/111111/111/1}
 Group   2 Type H   : 8s5p2d contracted to 8s5p2d pattern {11111111/11111/11}
 Group   3 Type O   : 15s10p6d3f1g contracted to 15s10p6d3f1g pattern {111111111111111/1111111111/111111/111/1}

Atom   0C    basis set group =>   1
Atom   1C    basis set group =>   1
Atom   2C    basis set group =>   1
Atom   3C    basis set group =>   1
Atom   4C    basis set group =>   1
Atom   5H    basis set group =>   2
Atom   6H    basis set group =>   2
Atom   7H    basis set group =>   2
Atom   8H    basis set group =>   2
Atom   9H    basis set group =>   2
Atom  10H    basis set group =>   2
Atom  11H    basis set group =>   2
Atom  12H    basis set group =>   2
Atom  13O    basis set group =>   3
Atom  14H    basis set group =>   2


           ************************************************************
           *        Program running with 8 parallel MPI-processes     *
           *              working on a common directory               *
           ************************************************************
------------------------------------------------------------------------------
                             ORCA STARTUP CALCULATIONS
------------------------------------------------------------------------------
------------------------------------------------------------------------------
                   ___                                                        
                  /   \      - P O W E R E D   B Y -                         
                 /     \                                                     
                 |  |  |   _    _      __       _____    __    __             
                 |  |  |  | |  | |    /  \     |  _  \  |  |  /  |          
                  \  \/   | |  | |   /    \    | | | |  |  | /  /          
                 / \  \   | |__| |  /  /\  \   | |_| |  |  |/  /          
                |  |  |   |  __  | /  /__\  \  |    /   |      \           
                |  |  |   | |  | | |   __   |  |    \   |  |\   \          
                \     /   | |  | | |  |  |  |  | |\  \  |  | \   \       
                 \___/    |_|  |_| |__|  |__|  |_| \__\ |__|  \__/        
                                                                              
                      - O R C A' S   B I G   F R I E N D -                    
                                      &                                       
                       - I N T E G R A L  F E E D E R -                       
                                                                              
 v1 FN, 2020, v2 2021, v3 2022-2024                                           
------------------------------------------------------------------------------


----------------------
SHARK INTEGRAL PACKAGE
----------------------

Number of atoms                             ...     15
Number of basis functions                   ...    297
Number of shells                            ...    153
Maximum angular momentum                    ...      2
Integral batch strategy                     ... SHARK/LIBINT Hybrid
RI-J (if used) integral strategy            ... SPLIT-RIJ (Revised 2003 algorithm where possible)
Printlevel                                  ...      1
Contraction scheme used                     ... PARTIAL GENERAL contraction
Prescreening option                         ... SCHWARTZ
   Thresh                                   ... 1.000e-10
   Tcut                                     ... 1.000e-11
   Tpresel                                  ... 1.000e-11 
Coulomb Range Separation                    ... NOT USED
Exchange Range Separation                   ... NOT USED
Multipole approximations                    ... NOT USED
Finite Nucleus Model                        ... NOT USED
CABS basis                                  ... AVAILABLE
   # of basis functions in CABS             ...    927
   # of shells in CABS                      ...    345
   Maximum angular momentum in CABS         ...      4
F12 Gamma exponent                          ...  0.900000
F12-Geminal                                 ...  6 primitives
l =0 ng=6 ofs=0
   a( 0) =     0.220850853  d( 0)=    -0.314424804 
   a( 1) =     1.004019154  d( 1)=    -0.303695753 
   a( 2) =     3.621217265  d( 2)=    -0.168069685 
   a( 3) =    12.162483048  d( 3)=    -0.098115813 
   a( 4) =    45.855331575  d( 4)=    -0.060246641 
   a( 5) =   254.234600970  d( 5)=    -0.037263542 
Auxiliary Coulomb fitting basis             ... NOT available
Auxiliary J/K fitting basis                 ... NOT available
Auxiliary Correlation fitting basis         ... AVAILABLE
   # of basis functions in Aux-C            ...    756
   # of shells in Aux-C                     ...    228
   Maximum angular momentum in Aux-C        ...      4
Auxiliary 'external' fitting basis          ... NOT available

Checking pre-screening integrals            ... done (  0.0 sec) Dimension = 153
Save PGC pre-screening integrals            ... done (  0.0 sec) Dimension = 153
Calculate PGC overlap integrals             ... done (  0.0 sec) Dimension = 117
Calculating pre-screening integrals (ORCA)  ... done (  0.0 sec) Dimension = 117
Shell pair information
Shell pair cut-off parameter TPreSel        ...   1.0e-11
Total number of shell pairs                 ...     11781
Shell pairs after pre-screening             ...     10152
Total number of primitive shell pairs       ...     15786
Primitive shell pairs kept                  ...     12469
          la=0 lb=0:   3381 shell pairs
          la=1 lb=0:   3942 shell pairs
          la=1 lb=1:   1120 shell pairs
          la=2 lb=0:   1062 shell pairs
          la=2 lb=1:    569 shell pairs
          la=2 lb=2:     78 shell pairs

Checking whether 4 symmetric matrices of dimension 297 fit in memory
:Max Core in MB      =   9000.00
 MB in use           =     65.87
 MB left             =   8934.13
 MB needed           =      1.35
 Data fit in memory  = YES
Calculating RI/C V-Matrix + Cholesky decomp.... done (  0.0 sec)
Calculating Nuclear repulsion               ... done (  0.0 sec) ENN=    237.271500188004 Eh

Diagonalization of the overlap matrix:
Smallest eigenvalue                        ... 5.988e-05
Time for diagonalization                   ...    0.007 sec
Threshold for overlap eigenvalues          ... 1.000e-07
Number of eigenvalues below threshold      ... 0
Time for construction of square roots      ...    0.003 sec
Total time needed                          ...    0.012 sec

-------------------
DFT GRID GENERATION
-------------------

General Integration Accuracy     IntAcc      ... 4.388
Radial Grid Type                 RadialGrid  ... OptM3 with GC (2021)
Angular Grid (max. ang.)         AngularGrid ... 4 (Lebedev-302)
Angular grid pruning method      GridPruning ... 4 (adaptive)
Weight generation scheme         WeightScheme... mBecke (2022)
Basis function cutoff            BFCut       ... 1.0000e-10
Integration weight cutoff        WCut        ... 1.0000e-14
Partially contracted basis set               ... off
Rotationally invariant grid construction     ... off
Angular grids for H and He will be reduced by one unit
Diffuse basis detected: some atoms will have their outermost
                        angular grid increased by 1.

Total number of grid points                  ...    66623
Total number of batches                      ...     1049
Average number of points per batch           ...       63
Average number of grid points per atom       ...     4442

---------------------
SHARK GRID GENERATION
---------------------

General Integration Accuracy     IntAcc      ... 4.388
Radial Grid Type                 RadialGrid  ... OptM3 with GC (2021)
Angular Grid (max. ang.)         AngularGrid ... 4 (Lebedev-302)
Angular grid pruning method      GridPruning ... 4 (adaptive)
Weight generation scheme         WeightScheme... mBecke (2022)
Basis function cutoff            BFCut       ... 1.0000e-10
Integration weight cutoff        WCut        ... 1.0000e-14
Partially contracted basis set               ... off
Rotationally invariant grid construction     ... off
Angular grids for H and He will be reduced by one unit
Diffuse basis detected: some atoms will have their outermost
                        angular grid increased by 1.
Steep s-basis detected: some atoms will have their radial
                        grid points doubled.

Total number of grid points                  ...   104502
Total number of batches                      ...     1640
Average number of points per batch           ...       63
Average number of grid points per atom       ...     6967
Grids setup in   0.9 sec
Initializing property integral containers    ... done (  0.0 sec)

SHARK setup successfully completed in   1.5 seconds

Maximum memory used throughout the entire STARTUP-calculation: 87.6 MB


           ************************************************************
           *        Program running with 8 parallel MPI-processes     *
           *              working on a common directory               *
           ************************************************************
-------------------------------------------------------------------------------
                                 ORCA GUESS
                   Start orbitals & Density for SCF / CASSCF
-------------------------------------------------------------------------------

------------
SCF SETTINGS
------------
Hamiltonian:
 Ab initio Hamiltonian  Method          .... Hartree-Fock(GTOs)


General Settings:
 Integral files         IntName         .... sp
 Hartree-Fock type      HFTyp           .... UHF
 Total Charge           Charge          ....    0
 Multiplicity           Mult            ....    2
 Number of Electrons    NEL             ....   47
 Basis Dimension        Dim             ....  261
 Nuclear Repulsion      ENuc            ....    237.2715001880 Eh

Convergence Acceleration:
 AO-DIIS                CNVDIIS         .... on
   Start iteration      DIISMaxIt       ....    12
   Startup error        DIISStart       ....  0.200000
   # of expansion vecs  DIISMaxEq       ....     5
   Bias factor          DIISBfac        ....   1.050
   Max. coefficient     DIISMaxC        ....  10.000
 MO-DIIS                CNVKDIIS        .... off
 Trust-Rad. Augm. Hess. CNVTRAH         .... auto
   Auto Start mean grad. ratio tolernc. ....  1.125000
   Auto Start start iteration           ....    50
   Auto Start num. interpolation iter.  ....    10
   Max. Number of Micro iterations      ....    24
   Max. Number of Macro iterations      .... Maxiter - #DIIS iter
   Number of Davidson start vectors     ....     2
   Converg. threshold    (grad. norm)   ....   5.000e-05
   Grad. Scal. Fac. for Micro threshold ....   0.100
   Minimum threshold for Micro iter.    ....   1.000e-02
   NR start threshold (gradient norm)   ....   1.000e-04
   Initial trust radius                 ....   0.400
   Minimum AH scaling param. (alpha)    ....   1.000
   Maximum AH scaling param. (alpha)    .... 1000.000
   Quad. conv. algorithm                .... NR
   White noise on init. David. guess    .... on
   Maximum white noise                  ....   0.010
   Pseudo random numbers                .... off
   Inactive MOs                         .... canonical
   Orbital update algorithm             .... Taylor
   Preconditioner                       .... Diag
   Full preconditioner red. dimension   ....   250
 SOSCF                 CNVSOSCF           .... on
   Start iteration     SOSCFMaxIt         ....   150
   Startup grad/error  SOSCFStart         ....  0.003300
   Hessian update      SOSCFHessUp        .... L-BFGS
   Autom. constraints  SOSCFAutoConstrain .... off
 Level Shifting         CNVShift        .... on
   Level shift para.    LevelShift      ....    0.2500
   Turn off err/grad.   ShiftErr        ....    0.0010
 Zerner damping         CNVZerner       .... off
 Static damping         CNVDamp         .... on
   Fraction old density DampFac         ....    0.7000
   Max. Damping (<1)    DampMax         ....    0.9800
   Min. Damping (>=0)   DampMin         ....    0.0000
   Turn off err/grad.   DampErr         ....    0.1000

SCF Procedure:
 Maximum # iterations   MaxIter         ....   125
 SCF integral mode      SCFMode         .... Direct
   Integral package                     .... SHARK and LIBINT hybrid scheme
 Reset frequency        DirectResetFreq ....    20
 Integral Threshold     Thresh          ....  1.000e-10 Eh
 Primitive CutOff       TCut            ....  1.000e-11 Eh

Convergence Tolerance:
 Convergence Check Mode ConvCheckMode   .... Total+1el-Energy
 Convergence forced     ConvForced      .... 1
 Energy Change          TolE            ....  1.000e-06 Eh
 1-El. energy change                    ....  1.000e-03 Eh
 Orbital Gradient       TolG            ....  5.000e-05
 Orbital Rotation angle TolX            ....  5.000e-05
 DIIS Error             TolErr          ....  1.000e-06

------------------------------
INITIAL GUESS: MODEL POTENTIAL
------------------------------
Loading Hartree-Fock densities                     ... done
Calculating cut-offs                               ... done
Initializing the effective Hamiltonian             ... done
Setting up the integral package (SHARK)            ... done
Starting the Coulomb interaction                   ... done (   0.0 sec)
Making the grid                                    ... done (   0.1 sec)
Mapping shells                                     ... done
Starting the XC term evaluation                    ... done (   0.0 sec)
Transforming the Hamiltonian                       ... done (   0.0 sec)
Diagonalizing the Hamiltonian                      ... done (   0.0 sec)
Back transforming the eigenvectors                 ... done (   0.0 sec)
Now organizing SCF variables                       ... done
                      ------------------
                      INITIAL GUESS DONE (   0.2 sec)
                      ------------------
             **** ENERGY FILE WAS UPDATED (sp.en.tmp) ****
Finished Guess after   1.7 sec
Maximum memory used throughout the entire GUESS-calculation: 18.1 MB


           ************************************************************
           *        Program running with 8 parallel MPI-processes     *
           *              working on a common directory               *
           ************************************************************

-------------------------------------------------------------------------------------------
                                      ORCA LEAN-SCF
                              memory conserving SCF solver
-------------------------------------------------------------------------------------------

----------------------------------------D-I-I-S--------------------------------------------
Iteration    Energy (Eh)           Delta-E    RMSDP     MaxDP     DIISErr   Damp  Time(sec)
-------------------------------------------------------------------------------------------
               ***  Starting incremental Fock matrix formation  ***
    1    -269.0343098760623661     0.00e+00  2.28e-03  3.50e-02  1.97e-01  0.700   2.4
    2    -269.1671249458361217    -1.33e-01  1.80e-03  2.89e-02  1.14e-01  0.700   2.3
                               ***Turning on AO-DIIS***
    3    -269.2429096055881246    -7.58e-02  8.64e-04  1.11e-02  6.97e-02  0.700   2.3
    4    -269.2918967740853304    -4.90e-02  2.21e-03  3.43e-02  5.57e-02  0.000   2.2
    5    -269.4147904238368483    -1.23e-01  8.26e-04  1.42e-02  3.03e-02  0.000   2.4
    6    -269.4234554801490731    -8.67e-03  8.83e-04  1.55e-02  2.74e-02  0.000   2.3
    7    -269.4312148144457524    -7.76e-03  1.05e-03  1.89e-02  2.61e-02  0.000   2.2
    8    -269.4392855532079238    -8.07e-03  8.89e-04  1.54e-02  2.00e-02  0.000   2.2
    9    -269.4441832873538942    -4.90e-03  4.56e-04  6.02e-03  1.21e-02  0.000   2.2
   10    -269.4458004365185388    -1.62e-03  3.65e-04  5.20e-03  6.34e-03  0.000   2.2
                              *** Initializing SOSCF ***
---------------------------------------S-O-S-C-F--------------------------------------
Iteration    Energy (Eh)           Delta-E    RMSDP     MaxDP     MaxGrad    Time(sec)
--------------------------------------------------------------------------------------
   11    -269.4463361594029038    -5.36e-04  1.22e-04  1.91e-03  2.88e-03     2.2
               *** Restarting incremental Fock matrix formation ***
   12    -269.4464262999671291    -9.01e-05  7.45e-05  1.23e-03  1.04e-03     2.4
   13    -269.4464463249551045    -2.00e-05  7.87e-05  1.26e-03  5.01e-04     2.0
   14    -269.4464555667851755    -9.24e-06  1.43e-05  2.82e-04  1.64e-04     2.0
   15    -269.4464565199339177    -9.53e-07  1.22e-05  2.41e-04  9.97e-05     1.8
                 **** Energy Check signals convergence ****

               *****************************************************
               *                     SUCCESS                       *
               *           SCF CONVERGED AFTER  15 CYCLES          *
               *****************************************************

             **** ENERGY FILE WAS UPDATED (sp.en.tmp) ****

----------------
TOTAL SCF ENERGY
----------------

Total Energy       :       -269.44645692082213 Eh           -7332.01085 eV

Components:
Nuclear Repulsion  :        237.27150018800350 Eh            6456.48576 eV
Electronic Energy  :       -506.71795710882566 Eh          -13788.49661 eV
One Electron Energy:       -836.15626675710485 Eh          -22752.96876 eV
Two Electron Energy:        329.43830964827919 Eh            8964.47215 eV

Virial components:
Potential Energy   :       -538.63410591398997 Eh          -14656.97917 eV
Kinetic Energy     :        269.18764899316778 Eh            7324.96832 eV
Virial Ratio       :          2.00096144057360

---------------
SCF CONVERGENCE
---------------

  Last Energy change         ...    9.5315e-07  Tolerance :   1.0000e-06
  Last MAX-Density change    ...    2.4145e-04  Tolerance :   1.0000e-05
  Last RMS-Density change    ...    1.2178e-05  Tolerance :   1.0000e-06
  Last DIIS Error            ...    2.8846e-03  Tolerance :   1.0000e-06
  Last Orbital Gradient      ...    9.9747e-05  Tolerance :   5.0000e-05
  Last Orbital Rotation      ...    3.0258e-04  Tolerance :   5.0000e-05


----------------------
UHF SPIN CONTAMINATION
----------------------

Expectation value of <S**2>     :     0.760906
Ideal value S*(S+1) for S=0.5   :     0.750000
Deviation                       :     0.010906

----------------
ORBITAL ENERGIES
----------------
                 SPIN UP ORBITALS
  NO   OCC          E(Eh)            E(eV) 
   0   1.0000     -20.614516      -560.9495 
   1   1.0000     -11.225441      -305.4598 
   2   1.0000     -11.223788      -305.4148 
   3   1.0000     -11.217191      -305.2353 
   4   1.0000     -11.217168      -305.2347 
   5   1.0000     -11.211895      -305.0912 
   6   1.0000      -1.369448       -37.2646 
   7   1.0000      -1.128051       -30.6958 
   8   1.0000      -0.961830       -26.1727 
   9   1.0000      -0.954152       -25.9638 
  10   1.0000      -0.782616       -21.2961 
  11   1.0000      -0.725360       -19.7380 
  12   1.0000      -0.677007       -18.4223 
  13   1.0000      -0.665830       -18.1182 
  14   1.0000      -0.647325       -17.6146 
  15   1.0000      -0.615769       -16.7559 
  16   1.0000      -0.554469       -15.0879 
  17   1.0000      -0.531980       -14.4759 
  18   1.0000      -0.530534       -14.4366 
  19   1.0000      -0.490322       -13.3423 
  20   1.0000      -0.484038       -13.1713 
  21   1.0000      -0.479186       -13.0393 
  22   1.0000      -0.470375       -12.7996 
  23   1.0000      -0.330515        -8.9938 
  24   0.0000       0.056094         1.5264 
  25   0.0000       0.061165         1.6644 
  26   0.0000       0.064985         1.7683 
  27   0.0000       0.070946         1.9305 
  28   0.0000       0.077901         2.1198 
  29   0.0000       0.083851         2.2817 
  30   0.0000       0.107648         2.9293 
  31   0.0000       0.107723         2.9313 
  32   0.0000       0.120870         3.2890 
  33   0.0000       0.126446         3.4408 
  34   0.0000       0.137334         3.7371 

                 SPIN DOWN ORBITALS
  NO   OCC          E(Eh)            E(eV) 
   0   1.0000     -20.574134      -559.8507 
   1   1.0000     -11.224038      -305.4216 
   2   1.0000     -11.222429      -305.3778 
   3   1.0000     -11.217305      -305.2384 
   4   1.0000     -11.217280      -305.2377 
   5   1.0000     -11.211884      -305.0909 
   6   1.0000      -1.217019       -33.1168 
   7   1.0000      -1.123694       -30.5773 
   8   1.0000      -0.958091       -26.0710 
   9   1.0000      -0.953586       -25.9484 
  10   1.0000      -0.781461       -21.2646 
  11   1.0000      -0.723580       -19.6896 
  12   1.0000      -0.672246       -18.2927 
  13   1.0000      -0.639905       -17.4127 
  14   1.0000      -0.608469       -16.5573 
  15   1.0000      -0.549490       -14.9524 
  16   1.0000      -0.529290       -14.4027 
  17   1.0000      -0.489878       -13.3303 
  18   1.0000      -0.486003       -13.2248 
  19   1.0000      -0.483483       -13.1563 
  20   1.0000      -0.479286       -13.0420 
  21   1.0000      -0.470411       -12.8005 
  22   1.0000      -0.337879        -9.1942 
  23   0.0000       0.056499         1.5374 
  24   0.0000       0.061242         1.6665 
  25   0.0000       0.064753         1.7620 
  26   0.0000       0.066540         1.8107 
  27   0.0000       0.077731         2.1152 
  28   0.0000       0.077947         2.1210 
  29   0.0000       0.102824         2.7980 
  30   0.0000       0.107956         2.9376 
  31   0.0000       0.115965         3.1556 
  32   0.0000       0.128195         3.4884 
  33   0.0000       0.131194         3.5700 
*Only the first 10 virtual orbitals were printed.

                    ********************************
                    * MULLIKEN POPULATION ANALYSIS *
                    ********************************

--------------------------------------------
MULLIKEN ATOMIC CHARGES AND SPIN POPULATIONS
--------------------------------------------
   0 C :   -0.143468   -0.006843
   1 C :   -0.246355    0.001560
   2 C :   -0.143344   -0.007191
   3 C :   -0.174825    0.039668
   4 C :   -0.173843    0.036901
   5 H :    0.106559    0.000437
   6 H :    0.107658    0.001936
   7 H :    0.121579   -0.000502
   8 H :    0.116189    0.000092
   9 H :    0.107583    0.002004
  10 H :    0.106566    0.000554
  11 H :    0.126647   -0.002150
  12 H :    0.126575   -0.001921
  13 O :   -0.285393    0.995079
  14 H :    0.247873   -0.059623
Sum of atomic charges         :   -0.0000000
Sum of atomic spin populations:    1.0000000

-----------------------------------------------------
MULLIKEN REDUCED ORBITAL CHARGES AND SPIN POPULATIONS
-----------------------------------------------------
CHARGE
  0 C s       :     2.973603  s :     2.973603
      pz      :     1.064329  p :     3.062335
      px      :     1.066505
      py      :     0.931502
      dz2     :     0.020946  d :     0.107530
      dxz     :     0.026052
      dyz     :     0.017702
      dx2y2   :     0.024080
      dxy     :     0.018751

  1 C s       :     3.057361  s :     3.057361
      pz      :     1.080186  p :     3.083205
      px      :     0.935289
      py      :     1.067729
      dz2     :     0.024742  d :     0.105790
      dxz     :     0.015748
      dyz     :     0.015935
      dx2y2   :     0.026493
      dxy     :     0.022873

  2 C s       :     2.973476  s :     2.973476
      pz      :     1.069318  p :     3.062325
      px      :     1.061428
      py      :     0.931579
      dz2     :     0.018394  d :     0.107543
      dxz     :     0.029806
      dyz     :     0.017213
      dx2y2   :     0.022887
      dxy     :     0.019243

  3 C s       :     3.114339  s :     3.114339
      pz      :     0.945324  p :     2.974837
      px      :     0.992394
      py      :     1.037119
      dz2     :     0.005968  d :     0.085650
      dxz     :     0.027478
      dyz     :     0.006570
      dx2y2   :     0.018265
      dxy     :     0.027369

  4 C s       :     3.113688  s :     3.113688
      pz      :     0.944491  p :     2.974480
      px      :     0.992769
      py      :     1.037220
      dz2     :     0.006484  d :     0.085676
      dxz     :     0.027001
      dyz     :     0.006920
      dx2y2   :     0.018282
      dxy     :     0.026989

  5 H s       :     0.860611  s :     0.860611
      pz      :     0.015384  p :     0.032830
      px      :     0.009558
      py      :     0.007889

  6 H s       :     0.857931  s :     0.857931
      pz      :     0.008486  p :     0.034411
      px      :     0.018006
      py      :     0.007918

  7 H s       :     0.845525  s :     0.845525
      pz      :     0.006880  p :     0.032896
      px      :     0.007470
      py      :     0.018546

  8 H s       :     0.852225  s :     0.852225
      pz      :     0.017760  p :     0.031586
      px      :     0.006685
      py      :     0.007142

  9 H s       :     0.858007  s :     0.858007
      pz      :     0.009762  p :     0.034410
      px      :     0.016719
      py      :     0.007929

 10 H s       :     0.860602  s :     0.860602
      pz      :     0.014041  p :     0.032832
      px      :     0.010897
      py      :     0.007894

 11 H s       :     0.838794  s :     0.838794
      pz      :     0.013701  p :     0.034559
      px      :     0.006067
      py      :     0.014791

 12 H s       :     0.838859  s :     0.838859
      pz      :     0.013881  p :     0.034566
      px      :     0.005858
      py      :     0.014828

 13 O s       :     3.895480  s :     3.895480
      pz      :     1.046500  p :     4.374245
      px      :     1.953999
      py      :     1.373746
      dz2     :     0.006354  d :     0.015668
      dxz     :     0.000244
      dyz     :     0.001060
      dx2y2   :     0.006320
      dxy     :     0.001690

 14 H s       :     0.690242  s :     0.690242
      pz      :     0.013562  p :     0.061885
      px      :     0.033305
      py      :     0.015018


SPIN
  0 C s       :    -0.002689  s :    -0.002689
      pz      :    -0.000358  p :    -0.004366
      px      :    -0.001299
      py      :    -0.002709
      dz2     :    -0.000222  d :     0.000211
      dxz     :     0.000193
      dyz     :     0.000198
      dx2y2   :     0.000044
      dxy     :    -0.000001

  1 C s       :     0.001879  s :     0.001879
      pz      :     0.000358  p :    -0.000134
      px      :    -0.000691
      py      :     0.000199
      dz2     :     0.000012  d :    -0.000185
      dxz     :    -0.000020
      dyz     :    -0.000129
      dx2y2   :    -0.000017
      dxy     :    -0.000031

  2 C s       :    -0.002803  s :    -0.002803
      pz      :    -0.000708  p :    -0.004638
      px      :    -0.001090
      py      :    -0.002840
      dz2     :    -0.000119  d :     0.000250
      dxz     :     0.000114
      dyz     :     0.000168
      dx2y2   :     0.000030
      dxy     :     0.000058

  3 C s       :    -0.000957  s :    -0.000957
      pz      :     0.029510  p :     0.039743
      px      :     0.005897
      py      :     0.004335
      dz2     :     0.000324  d :     0.000881
      dxz     :     0.000040
      dyz     :    -0.000023
      dx2y2   :     0.000367
      dxy     :     0.000173

  4 C s       :    -0.001271  s :    -0.001271
      pz      :     0.027926  p :     0.037262
      px      :     0.005260
      py      :     0.004076
      dz2     :    -0.000536  d :     0.000910
      dxz     :     0.001002
      dyz     :    -0.000022
      dx2y2   :     0.000308
      dxy     :     0.000158

  5 H s       :     0.000419  s :     0.000419
      pz      :     0.000014  p :     0.000018
      px      :     0.000006
      py      :    -0.000001

  6 H s       :     0.001934  s :     0.001934
      pz      :     0.000006  p :     0.000001
      px      :    -0.000011
      py      :     0.000006

  7 H s       :    -0.000513  s :    -0.000513
      pz      :    -0.000013  p :     0.000011
      px      :     0.000008
      py      :     0.000017

  8 H s       :     0.000152  s :     0.000152
      pz      :     0.000044  p :    -0.000061
      px      :     0.000003
      py      :    -0.000108

  9 H s       :     0.002006  s :     0.002006
      pz      :     0.000003  p :    -0.000002
      px      :    -0.000010
      py      :     0.000005

 10 H s       :     0.000539  s :     0.000539
      pz      :     0.000014  p :     0.000015
      px      :     0.000005
      py      :    -0.000004

 11 H s       :    -0.002971  s :    -0.002971
      pz      :     0.000508  p :     0.000821
      px      :     0.000255
      py      :     0.000058

 12 H s       :    -0.002714  s :    -0.002714
      pz      :     0.000615  p :     0.000792
      px      :     0.000119
      py      :     0.000058

 13 O s       :     0.009791  s :     0.009791
      pz      :     0.931127  p :     0.984159
      px      :     0.006736
      py      :     0.046295
      dz2     :    -0.000809  d :     0.001129
      dxz     :    -0.000005
      dyz     :     0.000814
      dx2y2   :     0.001030
      dxy     :     0.000099

 14 H s       :    -0.059597  s :    -0.059597
      pz      :     0.004601  p :    -0.000026
      px      :    -0.003552
      py      :    -0.001075



                     *******************************
                     * LOEWDIN POPULATION ANALYSIS *
                     *******************************

-------------------------------------------
LOEWDIN ATOMIC CHARGES AND SPIN POPULATIONS
-------------------------------------------
   0 C :   -0.022826   -0.000829
   1 C :   -0.000815   -0.000905
   2 C :   -0.022835   -0.000777
   3 C :   -0.021402    0.037831
   4 C :   -0.021281    0.036475
   5 H :    0.017246    0.000440
   6 H :    0.020391    0.000470
   7 H :    0.008817   -0.000174
   8 H :    0.023753   -0.000050
   9 H :    0.020355    0.000501
  10 H :    0.017239    0.000504
  11 H :    0.011921    0.000659
  12 H :    0.011983    0.000572
  13 O :    0.040032    0.918410
  14 H :   -0.082578    0.006875

----------------------------------------------------
LOEWDIN REDUCED ORBITAL CHARGES AND SPIN POPULATIONS
----------------------------------------------------
CHARGE
  0 C s       :     2.680731  s :     2.680731
      pz      :     1.007374  p :     2.929681
      px      :     0.977592
      py      :     0.944714
      dz2     :     0.069747  d :     0.412414
      dxz     :     0.094352
      dyz     :     0.058998
      dx2y2   :     0.099896
      dxy     :     0.089421

  1 C s       :     2.685744  s :     2.685744
      pz      :     1.012699  p :     2.919205
      px      :     0.927035
      py      :     0.979470
      dz2     :     0.085598  d :     0.395867
      dxz     :     0.057146
      dyz     :     0.063920
      dx2y2   :     0.100938
      dxy     :     0.088264

  2 C s       :     2.680740  s :     2.680740
      pz      :     1.009067  p :     2.929665
      px      :     0.975842
      py      :     0.944756
      dz2     :     0.059705  d :     0.412430
      dxz     :     0.107620
      dyz     :     0.057357
      dx2y2   :     0.096653
      dxy     :     0.091096

  3 C s       :     2.731201  s :     2.731201
      pz      :     0.822939  p :     2.869183
      px      :     1.055494
      py      :     0.990751
      dz2     :     0.038285  d :     0.421018
      dxz     :     0.065249
      dyz     :     0.036680
      dx2y2   :     0.117332
      dxy     :     0.163472

  4 C s       :     2.731206  s :     2.731206
      pz      :     0.822476  p :     2.868979
      px      :     1.055683
      py      :     0.990820
      dz2     :     0.038088  d :     0.421097
      dxz     :     0.065353
      dyz     :     0.037367
      dx2y2   :     0.117645
      dxy     :     0.162643

  5 H s       :     0.793539  s :     0.793539
      pz      :     0.087400  p :     0.189215
      px      :     0.052005
      py      :     0.049810

  6 H s       :     0.792272  s :     0.792272
      pz      :     0.066154  p :     0.187337
      px      :     0.073076
      py      :     0.048108

  7 H s       :     0.802484  s :     0.802484
      pz      :     0.059904  p :     0.188699
      px      :     0.048326
      py      :     0.080468

  8 H s       :     0.786310  s :     0.786310
      pz      :     0.093818  p :     0.189937
      px      :     0.046614
      py      :     0.049505

  9 H s       :     0.792304  s :     0.792304
      pz      :     0.070729  p :     0.187341
      px      :     0.068488
      py      :     0.048124

 10 H s       :     0.793544  s :     0.793544
      pz      :     0.084481  p :     0.189216
      px      :     0.054911
      py      :     0.049824

 11 H s       :     0.797283  s :     0.797283
      pz      :     0.053536  p :     0.190797
      px      :     0.057594
      py      :     0.079667

 12 H s       :     0.797251  s :     0.797251
      pz      :     0.053613  p :     0.190765
      px      :     0.057412
      py      :     0.079740

 13 O s       :     3.532266  s :     3.532266
      pz      :     1.046487  p :     4.399593
      px      :     1.858165
      py      :     1.494940
      dz2     :     0.011938  d :     0.028108
      dxz     :     0.000316
      dyz     :     0.000492
      dx2y2   :     0.014920
      dxy     :     0.000442

 14 H s       :     0.686157  s :     0.686157
      pz      :     0.060206  p :     0.396421
      px      :     0.123124
      py      :     0.213092


SPIN
  0 C s       :    -0.000391  s :    -0.000391
      pz      :    -0.000735  p :    -0.002187
      px      :    -0.000394
      py      :    -0.001058
      dz2     :    -0.000266  d :     0.001749
      dxz     :     0.000763
      dyz     :     0.001004
      dx2y2   :     0.000193
      dxy     :     0.000054

  1 C s       :    -0.000216  s :    -0.000216
      pz      :     0.000034  p :    -0.000146
      px      :     0.000031
      py      :    -0.000211
      dz2     :    -0.000096  d :    -0.000544
      dxz     :    -0.000041
      dyz     :    -0.000160
      dx2y2   :    -0.000172
      dxy     :    -0.000073

  2 C s       :    -0.000404  s :    -0.000404
      pz      :    -0.000715  p :    -0.002276
      px      :    -0.000449
      py      :    -0.001111
      dz2     :    -0.000099  d :     0.001902
      dxz     :     0.000675
      dyz     :     0.001078
      dx2y2   :     0.000166
      dxy     :     0.000082

  3 C s       :     0.002960  s :     0.002960
      pz      :     0.027897  p :     0.030313
      px      :     0.001118
      py      :     0.001298
      dz2     :     0.004225  d :     0.004557
      dxz     :     0.000113
      dyz     :    -0.000005
      dx2y2   :     0.000322
      dxy     :    -0.000097

  4 C s       :     0.002894  s :     0.002894
      pz      :     0.027018  p :     0.028830
      px      :     0.000569
      py      :     0.001243
      dz2     :     0.002809  d :     0.004751
      dxz     :     0.001783
      dyz     :    -0.000029
      dx2y2   :     0.000254
      dxy     :    -0.000066

  5 H s       :     0.000533  s :     0.000533
      pz      :    -0.000071  p :    -0.000093
      px      :     0.000022
      py      :    -0.000044

  6 H s       :     0.000403  s :     0.000403
      pz      :     0.000146  p :     0.000067
      px      :    -0.000013
      py      :    -0.000067

  7 H s       :    -0.000139  s :    -0.000139
      pz      :    -0.000039  p :    -0.000035
      px      :     0.000010
      py      :    -0.000007

  8 H s       :     0.000005  s :     0.000005
      pz      :    -0.000066  p :    -0.000055
      px      :     0.000006
      py      :     0.000006

  9 H s       :     0.000437  s :     0.000437
      pz      :     0.000157  p :     0.000064
      px      :    -0.000025
      py      :    -0.000068

 10 H s       :     0.000593  s :     0.000593
      pz      :    -0.000076  p :    -0.000089
      px      :     0.000028
      py      :    -0.000041

 11 H s       :    -0.001437  s :    -0.001437
      pz      :     0.001727  p :     0.002096
      px      :     0.000099
      py      :     0.000270

 12 H s       :    -0.001374  s :    -0.001374
      pz      :     0.001629  p :     0.001946
      px      :     0.000058
      py      :     0.000258

 13 O s       :     0.018624  s :     0.018624
      pz      :     0.871049  p :     0.901201
      px      :     0.011055
      py      :     0.019096
      dz2     :    -0.000536  d :    -0.001415
      dxz     :    -0.000004
      dyz     :     0.000191
      dx2y2   :    -0.001093
      dxy     :     0.000027

 14 H s       :    -0.030541  s :    -0.030541
      pz      :     0.038653  p :     0.037417
      px      :    -0.005740
      py      :     0.004503



                      *****************************
                      * MAYER POPULATION ANALYSIS *
                      *****************************

  NA   - Mulliken gross atomic population
  ZA   - Total nuclear charge
  QA   - Mulliken gross atomic charge
  VA   - Mayer's total valence
  BVA  - Mayer's bonded valence
  FA   - Mayer's free valence

  ATOM       NA         ZA         QA         VA         BVA        FA
  0 C      6.1435     6.0000    -0.1435     4.1807     4.1807     0.0000
  1 C      6.2464     6.0000    -0.2464     4.2573     4.2573     0.0000
  2 C      6.1433     6.0000    -0.1433     4.1807     4.1807     0.0000
  3 C      6.1748     6.0000    -0.1748     4.0820     4.0773     0.0047
  4 C      6.1738     6.0000    -0.1738     4.0816     4.0770     0.0046
  5 H      0.8934     1.0000     0.1066     1.0007     1.0007     0.0000
  6 H      0.8923     1.0000     0.1077     1.0108     1.0108     0.0000
  7 H      0.8784     1.0000     0.1216     0.9899     0.9899     0.0000
  8 H      0.8838     1.0000     0.1162     1.0009     1.0009     0.0000
  9 H      0.8924     1.0000     0.1076     1.0108     1.0108     0.0000
 10 H      0.8934     1.0000     0.1066     1.0007     1.0007     0.0000
 11 H      0.8734     1.0000     0.1266     0.9920     0.9920     0.0000
 12 H      0.8734     1.0000     0.1266     0.9921     0.9921     0.0000
 13 O      8.2854     8.0000    -0.2854     1.8609     0.9573     0.9035
 14 H      0.7521     1.0000     0.2479     0.9749     0.9706     0.0043

  Mayer bond orders larger than 0.100000
B(  0-C ,  1-C ) :   1.0928 B(  0-C ,  4-C ) :   1.0798 B(  0-C ,  5-H ) :   0.9598 
B(  0-C ,  6-H ) :   0.9561 B(  1-C ,  2-C ) :   1.0930 B(  1-C ,  7-H ) :   0.9634 
B(  1-C ,  8-H ) :   0.9873 B(  2-C ,  3-C ) :   1.0799 B(  2-C ,  9-H ) :   0.9560 
B(  2-C , 10-H ) :   0.9598 B(  3-C ,  4-C ) :   1.9015 B(  3-C , 11-H ) :   0.9601 
B(  4-C , 12-H ) :   0.9601 B( 13-O , 14-H ) :   0.9267 

-------
TIMINGS
-------

Total SCF time: 0 days 0 hours 0 min 36 sec 

Total time                  ....      36.282 sec
Sum of individual times     ....      34.484 sec  ( 95.0%)

SCF preparation             ....       1.573 sec  (  4.3%)
Fock matrix formation       ....      31.978 sec  ( 88.1%)
  Startup                   ....       0.014 sec  (  0.0% of F)
  Coulomb+Exchange Fock     ....      33.609 sec  (105.1% of F)
Diagonalization             ....       0.000 sec  (  0.0%)
Density matrix formation    ....       0.117 sec  (  0.3%)
Total Energy calculation    ....       0.057 sec  (  0.2%)
Population analysis         ....       0.034 sec  (  0.1%)
Orbital Transformation      ....       0.073 sec  (  0.2%)
Orbital Orthonormalization  ....       0.000 sec  (  0.0%)
DIIS solution               ....       0.509 sec  (  1.4%)
SOSCF solution              ....       0.140 sec  (  0.4%)
Finished LeanSCF after  36.3 sec

Maximum memory used throughout the entire LEANSCF-calculation: 21.2 MB


           ************************************************************
           *        Program running with 8 parallel MPI-processes     *
           *              working on a common directory               *
           ************************************************************

------------------------------------------------------------------------------
                         ORCA PROPERTY INTEGRAL CALCULATIONS
------------------------------------------------------------------------------

GBWName                                   ... sp.gbw
Number of atoms                           ...     15
Number of basis functions                 ...    297
Max core memory                           ...   9000 MB

Dipole integrals                          ... YES
Quadrupole integrals                      ...  NO
Linear momentum integrals                 ... YES
Angular momentum integrals                ... YES
Higher moments length integrals           ...  NO
Higher moments velocity integrals         ...  NO
Kinetic energy integrals                  ...  NO
GIAO right hand sides                     ...  NO
GIAO dipole derivative integrals          ...  NO
SOC integrals                             ...  NO
EPR diamagnetic integrals (GIAO)          ...  NO
EPR gauge integrals                       ...  NO
Field gradient integrals                  ...  NO (   0 nuclei)
Spin-dipole/Fermi contact integrals       ...  NO (   0 nuclei)
Contact density integrals                 ...  NO (   0 nuclei)
Nucleus-orbit integrals                   ...  NO (   0 nuclei)
Geometric perturbations                   ...  NO (  15 nuclei)

Choice of electric origin   ... Center of mass
Position of electric origin ... (  1.3778,  1.6220,  0.9781) 
Choice of magnetic origin   ... GIAO
Position of magnetic origin ... (  0.0000,  0.0000,  0.0000) 

Calculating integrals                     ... Electric Dipole (Length)     done (  0.0 sec)
Calculating integrals                     ... Linear Momentum              done (  0.0 sec)
Calculating integrals                     ... Angular Momentum  (ElOri)    done (  0.0 sec)

Property integrals calculated in   0.0 sec

Maximum memory used throughout the entire PROPINT-calculation: 19.0 MB


           ************************************************************
           *        Program running with 8 parallel MPI-processes     *
           *              working on a common directory               *
           ************************************************************


--------------------------------------------------------------------------------
                             ORCA-MATRIX DRIVEN CI
--------------------------------------------------------------------------------

--------------------------------
AUTOMATIC CHOICE OF INCORE LEVEL
--------------------------------

Memory available                           ...   4500.00 MB
Memory needed for S+T                      ...    219.84 MB
Memory needed for J+K                      ...    440.30 MB
Memory needed for DIIS                     ...   3077.74 MB
Memory needed for 3-ext                    ...   1828.13 MB
Memory needed for 4-ext                    ...  12085.99 MB
Memory needed for triples                  ...    507.81 MB
 -> Final InCoreLevel    ... 3
 -> check shows that triples correction can be computed


Wavefunction type
-----------------
Correlation treatment                      ...      CCSD     
Single excitations                         ... ON
Orbital optimization                       ... OFF
Calculation of Z vector                    ... OFF
Calculation of Brueckner orbitals          ... OFF
Perturbative triple excitations            ... ON
Calculation of F12 correction              ... ON
   Using RI for F12 correction             ... ON
Frozen core treatment                      ... chemical core (12 el)
Reference Wavefunction                     ... UHF
  Alpha-MOs occ    :     6 ...   23 ( 18 MO's/ 18 electrons)
  Beta-MOs occ     :     6 ...   22 ( 17 MO's/ 17 electrons)
  Alpha-MOs virt   :    24 ...  260 (237 MO's              )
  Beta-MOs virt    :    23 ...  260 (238 MO's              )
Number of AO's                             ...    261
Number of electrons                        ...     47
Number of correlated electrons             ...     35

Algorithmic settings
--------------------
Integral transformation                    ... Separate K and J transformations
K(C) Formation                             ... AO-EXCHANGE STORED
Maximum number of iterations               ...        50
Convergence tolerance (max. residuum)      ... 2.500e-05
Level shift for amplitude update           ... 2.000e-01
Maximum number of DIIS vectors             ...         7
DIIS turned on at iteration                ...         0
Damping before turning on DIIS             ...     0.500
Damping after turning on DIIS              ...     0.000
Pair specific amplitude update             ... OFF
Natural orbital iterations                 ... OFF
Perturbative natural orbital generation    ... OFF
Printlevel                                 ... 2

Memory handling:
----------------
Maximum memory for working arrays          ...   4500 MB
Data storage in matrix containers          ... UNCOMPRESSED
Data type for integral storage             ... DOUBLE
In-Core Storage of quantities:
   Amplitudes+Sigma Vector      ... YES
   J+K operators                ... YES
   DIIS vectors                 ... YES
   3-external integrals         ... NO
   4-external integrals         ... NO


Initializing the integral package          ... done
Warning: reference  - re-canonicalizations have been set to INT 1 VIRT 1
Fock densities were made 
Making Fock matrix and reference energy:

--------------------------
UNRESTRICTED FOCK OPERATOR
--------------------------

Recanonicalizing the internal orbitals
Recanonicalizing the virtual orbitals
Storing new orbitals
Time needed for Fock operator              ...            3.739 sec
Reference energy                           ...   -269.446456933

-------------------------
SHARK HALF TRANSFORMATION
-------------------------

Number of basis functions                ...    261
Number of operators                      ...      2
   Operator  0:    6-  23

   Operator  1:    6-  22

Integral generator used                  ... SHARK
Contraction scheme used                  ... SEGMENTED CONTRACTION
MaxCore in resort                        ...   9000 MB

Half transformed integrals for op=   0   ... sp.SHARK_MNPQ0.tmp
Resorted half transformed integrals      ... sp._PQMN_0.tmp
Half transformed integrals for op=   1   ... sp.SHARK_MNPQ1.tmp
Resorted half transformed integrals      ... sp._PQMN_1.tmp
Starting integral generation + half trafo... 
Half trafo (segmented) done. Total time =  6.2 sec. integrals=  4.7 sec trafo=  1.3 sec
Starting integral resorting              ... done (  0.4 sec)

SHARK half integral transformation done. Total time =  6.5 sec.

----------------------------------
J-TRAFO SECOND HALF TRANSFORMATION
----------------------------------

Generate (ij|kl)                        ... NO
Generate (ij|ka)                        ... YES
Generate (ij|ab)                        ... YES
Generate (ia|bc)                        ... NO
Generate (ab|cd)                        ... NO
Generate (pq|rs)                        ... NO

Number of operators                     ... 2
   Operator 0                           ...    6-  23 to   24- 260
   PQMN-Container name                  ... sp._PQMN_0.tmp
   IJKA-Container name    op=0,0        ... sp._IJKA_0.tmp
   IJAB-Container name    op=0,0        ... sp._IJAB_0.tmp
   IJKA-Container name    op=0,1        ... sp._IJKA_2.tmp
   IJAB-Container name    op=0,1        ... sp._IJAB_2.tmp
   Operator 1                           ...    6-  22 to   23- 260
   PQMN-Container name                  ... sp._PQMN_1.tmp
   IJKA-Container name    op=1,0        ... sp._IJKA_3.tmp
   IJAB-Container name    op=1,0        ... sp._IJAB_3.tmp
   IJKA-Container name    op=1,1        ... sp._IJKA_1.tmp
   IJAB-Container name    op=1,1        ... sp._IJAB_1.tmp

Starting integral transformations       ... done
Completed Coulomb integral formation in   0.2 sec


-------------------------
SHARK HALF TRANSFORMATION (Exchange order)
-------------------------

Number of basis functions                   ...    261
Number of operators                         ...      2
   Operator  0:    6-  23 (p-index in (p*|q*))
   Operator  0:    6- 260 (q-index in (p*|q*)
   Operator  1:    6-  22 (p-index in (p*|q*))
   Operator  1:    6- 260 (q-index in (p*|q*)
Integral generator used                     ... SHARK
Contraction scheme used                     ... SEGMENTED CONTRACTION
MaxCore in resort                           ...   9000 MB

Half transformed integrals for op=   0      ... sp.SHARK_MNPQ0.tmp
Resorted half transformed integrals         ... sp._PMQN_0.tmp
Half transformed integrals for op=   1      ... sp.SHARK_MNPQ1.tmp
Resorted half transformed integrals         ... sp._PMQN_1.tmp
Half transformed integrals for op=0/1       ... sp.SHARK_MNPQ01.tmp
Resorted half transformed integrals         ... sp._PMQN_2.tmp
Half transformed integrals for op=1/0       ... sp.SHARK_MNPQ10.tmp
Resorted half transformed integrals         ... sp._PMQN_3.tmp

Half trafo (segmented) done. Total time = 34.2 sec. integrals=  8.0 sec trafo= 14.7 sec

----------------------
SHARK INTEGRAL SORTING (Exchange)
----------------------

Input container                             ... sp.SHARK_MNPQ0.tmp
Output container                            ... sp._PMQN_0.tmp
Range of AO-indices                         ...    0 -  260
Range of bra indices i                      ...    6 -   23
Range of ket indices j                      ...    6 -  260
Symmetric i,j range                         ... NO
Number of (i,j) pairs generated             ... 4590
Max Core memory in MB                       ...   9000

Available core memory in MB                 ...   8900.12
MB needed for one item                      ...      0.52
Fixed MB needed                             ...      0.00
Number of items                             ...       574
Number of batches                           ...         1
Items treated per batch                     ...       574
Batch   0                                   ...      0-   573 (   574)
   => Closing output file and leaving

----------------------
SHARK INTEGRAL SORTING (Exchange)
----------------------

Input container                             ... sp.SHARK_MNPQ1.tmp
Output container                            ... sp._PMQN_1.tmp
Range of AO-indices                         ...    0 -  260
Range of bra indices i                      ...    6 -   22
Range of ket indices j                      ...    6 -  260
Symmetric i,j range                         ... NO
Number of (i,j) pairs generated             ... 4335
Max Core memory in MB                       ...   9000

Available core memory in MB                 ...   8900.91
MB needed for one item                      ...      0.52
Fixed MB needed                             ...      0.00
Number of items                             ...       542
Number of batches                           ...         1
Items treated per batch                     ...       542
Batch   0                                   ...      0-   541 (   542)
   => Closing output file and leaving

----------------------
SHARK INTEGRAL SORTING (Exchange)
----------------------

Input container                             ... sp.SHARK_MNPQ01.tmp
Output container                            ... sp._PMQN_2.tmp
Range of AO-indices                         ...    0 -  260
Range of bra indices i                      ...    6 -   23
Range of ket indices j                      ...    6 -  260
Symmetric i,j range                         ... NO
Number of (i,j) pairs generated             ... 4590
Max Core memory in MB                       ...   9000

Available core memory in MB                 ...   8901.69
MB needed for one item                      ...      0.52
Fixed MB needed                             ...      0.00
Number of items                             ...       574
Number of batches                           ...         1
Items treated per batch                     ...       574
Batch   0                                   ...      0-   573 (   574)
   => Closing output file and leaving

----------------------
SHARK INTEGRAL SORTING (Exchange)
----------------------

Input container                             ... sp.SHARK_MNPQ10.tmp
Output container                            ... sp._PMQN_3.tmp
Range of AO-indices                         ...    0 -  260
Range of bra indices i                      ...    6 -   22
Range of ket indices j                      ...    6 -  260
Symmetric i,j range                         ... NO
Number of (i,j) pairs generated             ... 4335
Max Core memory in MB                       ...   9000

Available core memory in MB                 ...   8902.48
MB needed for one item                      ...      0.52
Fixed MB needed                             ...      0.00
Number of items                             ...       542
Number of batches                           ...         1
Items treated per batch                     ...       542
Batch   0                                   ...      0-   541 (   542)
   => Closing output file and leaving
done ( 12.9 sec)

SHARK half integral transformation done. Total time = 47.2 sec.

----------------------------------
K-TRAFO SECOND HALF TRANSFORMATION
----------------------------------

Generate (ik|jl)                        ... YES
Generate (ik|ja)                        ... YES
Generate (ia|jb)                        ... YES
Generate (ib|ac)                        ... YES
Generate (ac|bd)                        ... NO
Generate (pr|qs)                        ... NO

Number of operators                     ... 2
   Operator 0                           ...    6-  23 to   24- 260
   Operator 1                           ...    6-  22 to   23- 260

Starting integral transformations       ... done
Completed Exchange integral formation in  14.8 sec


------------------------------
Initializing F12 data (SHARK)
------------------------------

Mapping basis set                  ... done
Dimension of the orbital basis set  = 261
Dimension of the CABS basis set     = 927
Dimension of the AUX basis set      = 756
Threshold for CABS orthogonalization = 1.000e-08
Test shows that OBS-bases are identical for ORCA and SHARK (good)
Test shows that CABS-bases are identical for ORCA and SHARK (good)
Will use an exponential correlation factor -Exp(-gamma r12)/gamma (gamma= 0.900) fit to 6 Gaussians 
Correlation factor:   
  NGauss  :          6      
  Gaussian expansion: 
    a( 0)=    0.1948458958396247  d( 0)=   -0.3837757050057319 
    a( 1)=    0.9387038387678155  d( 1)=   -0.3334018174260626 
    a( 2)=    3.4610351909878712  d( 2)=   -0.1753946777841836 
    a( 3)=   11.7049812253407470  d( 3)=   -0.1006409546144490 
    a( 4)=   44.2276119656826054  d( 4)=   -0.0614475916279048 
    a( 5)=  245.3721739425115800  d( 5)=   -0.0379425509353721 
Calculating one-electron matrices                       ... (SHARK)done (      0.2 sec)
Calculating pre-screening matrices:                     ... 
     (LIBINT-0)       .... 1/r12 done          (      0.1 sec)
     (LIBINT-1)       .... f12/r12 done        (      0.1 sec)
     (LIBINT-2)       .... f12 done            (      0.1 sec)
     (LIBINT-3)       .... f12^2 done          (      0.1 sec)
     (LIBINT-4)       .... [f12,[T1,f12]] done (      0.1 sec)
                                                        ... done (      0.5 sec)
Making CABS spaces                                      ... done (      0.1 sec)
Calculating 2-index 2-center F12 integrals              ... 
Two index explicit correlation integrals  op=0          ...(SHARK-0) done (      0.0 sec)  Metric   done (      0.0 sec)
Two index explicit correlation integrals  op=1          ...(SHARK-1) done (      0.0 sec)  Metric   done (      0.0 sec)
Two index explicit correlation integrals  op=2          ...(SHARK-2) done (      0.0 sec)  Metric   done (      0.0 sec)
Two index explicit correlation integrals  op=3          ...(SHARK-3) done (      0.0 sec)  Metric   done (      0.0 sec)
Two index explicit correlation integrals  op=4          ...(SHARK-4) done (      0.0 sec)  Metric   done (      0.1 sec)
                                                                     done (      0.2 sec)

-----------------------
SPIN UNRESTRICTED GUESS
-----------------------

Spin-components of the MP2 energy:
EMP2(aa)=     -0.124596818
EMP2(bb)=     -0.110385705
EMP2(ab)=     -0.735516749

Initial guess performed in     0.567 sec
E(0)                                       ...   -269.446456933
E(MP2)                                     ...     -0.970499273
Initial E(tot)                             ...   -270.416956206
<T|T>                                      ...      0.310115057
Number of pairs included                   ... 595

------------------------------------------------
                  UHF COUPLED CLUSTER ITERATIONS
------------------------------------------------

Number of amplitudes to be optimized       ...     25413036

Iter       E(tot)           E(Corr)          Delta-E          Residual     Time      <S|S>**1/2
  0   -270.416956245     -0.970499312     -0.000000039      0.023224050   85.28      0.000137291
                           *** Turning on DIIS ***
  1   -270.440885431     -0.994428498     -0.023929186      0.005720303   85.11      0.047703616
  2   -270.465472437     -1.019015504     -0.024587005      0.003809320   86.93      0.059723245
  3   -270.471910420     -1.025453486     -0.006437983      0.002744026   88.45      0.072110869
  4   -270.473362590     -1.026905657     -0.001452170      0.002327363   87.03      0.079560139
  5   -270.473955125     -1.027498192     -0.000592535      0.001477782   88.23      0.087740140
  6   -270.474354569     -1.027897636     -0.000399444      0.000759660   87.37      0.095643624
  7   -270.474511027     -1.028054094     -0.000156458      0.000226764   89.26      0.100346709
  8   -270.474553180     -1.028096247     -0.000042153      0.000058860   86.78      0.101894201
  9   -270.474562041     -1.028105108     -0.000008860      0.000023875   87.85      0.102243310
               --- The Coupled-Cluster iterations have converged ---
--------------------
CC F12/RI CORRECTION
--------------------

Doing density matrix                                    ... done (      0.0 sec)
[...]
      py      :     0.976306
      dz2     :     0.087283  d :     0.412254
      dxz     :     0.062268
      dyz     :     0.067388
      dx2y2   :     0.103809
      dxy     :     0.091506
  2 C s       :     2.685662  s :     2.685662
      pz      :     1.009851  p :     2.920272
      px      :     0.971850
      py      :     0.938572
      dz2     :     0.062966  d :     0.425092
      dxz     :     0.106935
      dyz     :     0.060941
      dx2y2   :     0.099998
      dxy     :     0.094252
  3 C s       :     2.735643  s :     2.735643
      pz      :     0.807420  p :     2.838166
      px      :     1.045975
      py      :     0.984771
      dz2     :     0.046035  d :     0.439570
      dxz     :     0.063928
      dyz     :     0.042406
      dx2y2   :     0.122031
      dxy     :     0.165171
  4 C s       :     2.735640  s :     2.735640
      pz      :     0.807150  p :     2.838066
      px      :     1.046077
      py      :     0.984839
      dz2     :     0.046364  d :     0.439637
      dxz     :     0.063412
      dyz     :     0.043071
      dx2y2   :     0.122418
      dxy     :     0.164371
  5 H s       :     0.775342  s :     0.775342
      pz      :     0.090858  p :     0.199906
      px      :     0.055615
      py      :     0.053433
  6 H s       :     0.774126  s :     0.774126
      pz      :     0.068981  p :     0.197287
      px      :     0.076686
      py      :     0.051621
  7 H s       :     0.785678  s :     0.785678
      pz      :     0.063282  p :     0.199414
      px      :     0.051990
      py      :     0.084141
  8 H s       :     0.769537  s :     0.769537
      pz      :     0.097249  p :     0.200094
      px      :     0.049901
      py      :     0.052943
  9 H s       :     0.774153  s :     0.774153
      pz      :     0.073557  p :     0.197291
      px      :     0.072098
      py      :     0.051637
 10 H s       :     0.775341  s :     0.775341
      pz      :     0.087923  p :     0.199907
      px      :     0.058537
      py      :     0.053446
 11 H s       :     0.781983  s :     0.781983
      pz      :     0.052861  p :     0.197779
      px      :     0.061779
      py      :     0.083139
 12 H s       :     0.781956  s :     0.781956
      pz      :     0.052927  p :     0.197759
      px      :     0.061622
      py      :     0.083210
 13 O s       :     3.522879  s :     3.522879
      pz      :     1.103284  p :     4.404125
      px      :     1.824741
      py      :     1.476101
      dz2     :     0.015687  d :     0.055477
      dxz     :     0.006322
      dyz     :     0.005531
      dx2y2   :     0.021703
      dxy     :     0.006233
 14 H s       :     0.687957  s :     0.687957
      pz      :     0.071949  p :     0.420544
      px      :     0.133041
      py      :     0.215554

SPIN
  0 C s       :    -0.000406  s :    -0.000406
      pz      :    -0.000458  p :    -0.001778
      px      :    -0.000390
      py      :    -0.000930
      dz2     :    -0.000215  d :     0.004386
      dxz     :     0.001706
      dyz     :     0.002581
      dx2y2   :     0.000263
      dxy     :     0.000050
  1 C s       :    -0.000209  s :    -0.000209
      pz      :     0.000333  p :     0.000115
      px      :    -0.000070
      py      :    -0.000148
      dz2     :    -0.000122  d :    -0.000490
      dxz     :    -0.000062
      dyz     :    -0.000078
      dx2y2   :    -0.000145
      dxy     :    -0.000082
  2 C s       :    -0.000411  s :    -0.000411
      pz      :    -0.000428  p :    -0.001803
      px      :    -0.000429
      py      :    -0.000946
      dz2     :    -0.000108  d :     0.004429
      dxz     :     0.001682
      dyz     :     0.002559
      dx2y2   :     0.000192
      dxy     :     0.000105
  3 C s       :     0.003675  s :     0.003675
      pz      :     0.055257  p :     0.058029
      px      :     0.001370
      py      :     0.001403
      dz2     :     0.004805  d :     0.006888
      dxz     :     0.001459
      dyz     :     0.000228
      dx2y2   :     0.000436
      dxy     :    -0.000040
  4 C s       :     0.003658  s :     0.003658
      pz      :     0.055562  p :     0.057648
      px      :     0.000701
      py      :     0.001385
      dz2     :     0.003259  d :     0.006947
      dxz     :     0.003151
      dyz     :     0.000215
      dx2y2   :     0.000351
      dxy     :    -0.000030
  5 H s       :     0.001831  s :     0.001831
      pz      :     0.000006  p :     0.000114
      px      :     0.000061
      py      :     0.000047
  6 H s       :     0.001068  s :     0.001068
      pz      :     0.000250  p :     0.000223
      px      :     0.000015
      py      :    -0.000042
  7 H s       :    -0.000094  s :    -0.000094
      pz      :    -0.000036  p :    -0.000049
      px      :     0.000001
      py      :    -0.000013
  8 H s       :     0.000238  s :     0.000238
      pz      :    -0.000070  p :    -0.000009
      px      :    -0.000004
      py      :     0.000065
  9 H s       :     0.001080  s :     0.001080
      pz      :     0.000272  p :     0.000221
      px      :    -0.000007
      py      :    -0.000043
 10 H s       :     0.001854  s :     0.001854
      pz      :    -0.000014  p :     0.000116
      px      :     0.000082
      py      :     0.000048
 11 H s       :    -0.001400  s :    -0.001400
      pz      :     0.003879  p :     0.004308
      px      :     0.000132
      py      :     0.000297
 12 H s       :    -0.001380  s :    -0.001380
      pz      :     0.003903  p :     0.004265
      px      :     0.000068
      py      :     0.000294
 13 O s       :     0.019388  s :     0.019388
      pz      :     0.779401  p :     0.804106
      px      :     0.010566
      py      :     0.014140
      dz2     :     0.002706  d :     0.005397
      dxz     :     0.001687
      dyz     :     0.001870
      dx2y2   :    -0.000791
      dxy     :    -0.000076
 14 H s       :    -0.018319  s :    -0.018319
      pz      :     0.038307  p :     0.036364
      px      :    -0.004571
      py      :     0.002628


                      *****************************
                      * MAYER POPULATION ANALYSIS *
                      *****************************

  NA   - Mulliken gross atomic population
  ZA   - Total nuclear charge
  QA   - Mulliken gross atomic charge
  VA   - Mayer's total valence
  BVA  - Mayer's bonded valence
  FA   - Mayer's free valence

  ATOM       NA         ZA         QA         VA         BVA        FA
  0 C      6.2202     6.0000    -0.2202     4.2533     3.9094     0.3439
  1 C      6.3101     6.0000    -0.3101     4.2991     3.9484     0.3507
  2 C      6.2200     6.0000    -0.2200     4.2533     3.9094     0.3439
  3 C      6.1525     6.0000    -0.1525     4.1567     3.7421     0.4146
  4 C      6.1517     6.0000    -0.1517     4.1564     3.7419     0.4145
  5 H      0.8620     1.0000     0.1380     0.9965     0.9268     0.0697
  6 H      0.8581     1.0000     0.1419     1.0029     0.9348     0.0681
  7 H      0.8474     1.0000     0.1526     0.9812     0.9134     0.0679
  8 H      0.8519     1.0000     0.1481     0.9950     0.9277     0.0674
  9 H      0.8581     1.0000     0.1419     1.0029     0.9348     0.0681
 10 H      0.8620     1.0000     0.1380     0.9965     0.9268     0.0697
 11 H      0.8497     1.0000     0.1503     0.9823     0.9167     0.0655
 12 H      0.8497     1.0000     0.1503     0.9823     0.9168     0.0655
 13 O      8.3247     8.0000    -0.3247     2.1801     1.0729     1.1072
 14 H      0.7820     1.0000     0.2180     1.0114     0.9372     0.0741

  Mayer bond orders larger than 0.100000
B(  0-C ,  1-C ) :   1.0140 B(  0-C ,  4-C ) :   1.0241 B(  0-C ,  5-H ) :   0.8911 
B(  0-C ,  6-H ) :   0.8942 B(  1-C ,  2-C ) :   1.0142 B(  1-C ,  7-H ) :   0.8982 
B(  1-C ,  8-H ) :   0.9196 B(  2-C ,  3-C ) :   1.0242 B(  2-C ,  9-H ) :   0.8942 
B(  2-C , 10-H ) :   0.8912 B(  3-C ,  4-C ) :   1.6376 B(  3-C , 11-H ) :   0.8941 
B(  4-C , 12-H ) :   0.8940 B( 13-O , 14-H ) :   0.9005 



--------------------------------------------------------------------------------
                                    TIMINGS
--------------------------------------------------------------------------------


Total execution time                   ...     2106.749 sec

Fock Matrix Formation                  ...        3.739 sec (  0.2%)
Initial Guess                          ...        0.567 sec (  0.0%)
DIIS Solver                            ...       18.930 sec (  0.9%)
State Vector Update                    ...        0.705 sec (  0.0%)
Sigma-vector construction              ...      852.639 sec ( 40.5%)
  <0|H|D>                              ...        0.190 sec (  0.0% of sigma)
  <D|H|D>(0-ext Fock)                  ...        1.721 sec (  0.2% of sigma)
  <D|H|D>(0-ext)                       ...       15.258 sec (  1.8% of sigma)
  <D|H|D>(2-ext Fock)                  ...        1.236 sec (  0.1% of sigma)
  <D|H|D>(2-ext)                       ...       82.236 sec (  9.6% of sigma)
  <D|H|D>(4-ext)                       ...      390.820 sec ( 45.8% of sigma)
  <S|H|0>                              ...      154.703 sec ( 18.1% of sigma)
  <S|H|S>                              ...        0.006 sec (  0.0% of sigma)
  <S|H|D>(1-ext)                       ...        0.337 sec (  0.0% of sigma)
  <D|H|S>(1-ext)                       ...        1.949 sec (  0.2% of sigma)
  Fock-dressing                        ...       31.958 sec (  3.7% of sigma)
  (ik|jl)-dressing                     ...       32.334 sec (  3.8% of sigma)
  (ij|ab),(ia|jb)-dressing             ...      132.884 sec ( 15.6% of sigma)
  Pair energies                        ...        0.260 sec (  0.0% of sigma)
Total Time for computing (T)           ...      933.177 sec ( 44.3% of ALL)
  I/O of integral and amplitudes       ...       63.118 sec (  6.8% of (T))
  External N**7 contributions          ...      648.854 sec ( 69.5% of (T))
  Internal N**7 contributions          ...       60.047 sec (  6.4% of (T))
  N**6 triples energy contributions    ...      160.225 sec ( 17.2% of (T))


Maximum memory used throughout the entire MDCI-calculation: 7239.3 MB

-------------------------   --------------------
FINAL SINGLE POINT ENERGY      -270.667434815224
-------------------------   --------------------



           ************************************************************
           *        Program running with 8 parallel MPI-processes     *
           *              working on a common directory               *
           ************************************************************

------------------------------------------------------------------------------
                              ORCA PROPERTY CALCULATIONS
------------------------------------------------------------------------------

GBWName                                 ... sp.gbw
Number of atoms                         ...     15
Number of basis functions               ...    297
Max core memory                         ...   9000 MB

Electric properties:
Dipole moment                           ... YES
Quadrupole moment                       ...  NO
Static polarizability (Dipole/Dipole)   ...  NO
Static polarizability (Dipole/Quad.)    ...  NO
Static polarizability (Quad./Quad.)     ...  NO
Static polarizability (Velocity)        ...  NO
Static hyperpolarizability              ...  NO

Atomic electric properties:
Dipole moment                           ...  NO
Quadrupole moment                       ...  NO
Static polarizability                   ...  NO

Choice of electric origin               ... Center of mass
Position of electric origin             ...     1.377815     1.621995     0.978085

General magnetic properties:
Magnetizability                         ...  NO

EPR properties:
g-Tensor (aka g-matrix)                 ...  NO
Zero-Field splitting spin-orbit         ...  NO
Zero-field splitting spin-spin          ...  NO
Hyperfine couplings                     ...  NO (   0 nuclei)
Quadrupole couplings                    ...  NO (   0 nuclei)
Contact density                         ...  NO (   0 nuclei)

NMR properties:
Chemical shifts                         ...  NO (   0 nuclei)
Spin-rotation constants                 ...  NO (   0 nuclei)
Spin-spin couplings                     ...  NO (   0 nuclei,    0 pairs)

Choice of magnetic origin               ... GIAO
Position of magnetic origin             ...     0.000000     0.000000     0.000000

Properties with geometric perturbations:
SCF Hessian                             ...  NO
IR spectrum                             ...  NO
VCD spectrum                            ...  NO
X-ray spectroscopy properties:
SCF XES/XAS/RIXS spectra                ...  NO

SCF SOC stabilization energy            ...  NO
Diagonal Born-Oppenheimer correction    ...  NO

-------------
DIPOLE MOMENT
-------------

Method             : SCF
Type of density    : Electron Density
Multiplicity       :   2
Irrep              :   0
Energy             :  -269.4464569208221292 Eh
Basis              : AO
                                X                 Y                 Z
Electronic contribution:      0.084059006      -2.211773795       1.644213803
Nuclear contribution   :     -0.091773719       1.714456591      -1.756715602
                        -----------------------------------------
Total Dipole Moment    :     -0.007714713      -0.497317204      -0.112501799
                        -----------------------------------------
Magnitude (a.u.)       :      0.509941735
Magnitude (Debye)      :      1.296168883



--------------------
Rotational spectrum 
--------------------
 
Rotational constants in cm-1:             0.145326             0.104078             0.096428 
Rotational constants in MHz :          4356.770943          3120.181364          2890.850886 

Dipole components along the rotational axes: 
x,y,z [a.u.] :     0.263274     0.002587     0.436716 
x,y,z [Debye]:     0.669189     0.006575     1.110043 

 

-------------
DIPOLE MOMENT
-------------

Method             : MDCI(SD)
Type of density    : Electron Density
Multiplicity       :   2
Level              : Linearized density
Irrep              :   0
Energy             :     0.0000000000000000 Eh
Basis              : AO
                                X                 Y                 Z
Electronic contribution:      0.068513557      -2.107052196       1.339747303
Nuclear contribution   :     -0.091773719       1.714456591      -1.756715602
                        -----------------------------------------
Total Dipole Moment    :     -0.023260162      -0.392595605      -0.416968299
                        -----------------------------------------
Magnitude (a.u.)       :      0.573179646
Magnitude (Debye)      :      1.456906878



--------------------
Rotational spectrum 
--------------------
 
Rotational constants in cm-1:             0.145326             0.104078             0.096428 
Rotational constants in MHz :          4356.770943          3120.181364          2890.850886 

Dipole components along the rotational axes: 
x,y,z [a.u.] :    -0.029111     0.002638     0.572434 
x,y,z [Debye]:    -0.073993     0.006704     1.455011 

 

Dipole moment calculation done in   0.0 sec 

Maximum memory used throughout the entire PROP-calculation: 17.3 MB

--------------------------------
SUGGESTED CITATIONS FOR THIS RUN
--------------------------------

Below you find a list of papers that are relevant to this ORCA run
We neither can nor want to force you to cite these papers, but we appreciate if you do
You receive ORCA, which is the product of decades of hard work by many enthusiastic individuals, for free
The only thing we kindly ask in return is that you cite our papers,
We deeply appreciate it, if you show your appreciation for ORCA by not just citing the generic ORCA reference.

Please note that relegating all ORCA citations to the supporting information does *not* help us.
SI sections are not indexed - citations you put there will not count into any citation statistics
But we need these citations in order to attract the funding resources that allow us to do what we are doing

Therefore, if you are a happy ORCA user, please consider citing a few of the papers listed below in the main body of your paper

In addition to the list printed below, the program has created the file sp.bibtex that contains the list in bibtex format
You can import this file easily into all common literature databanks and citation aid programs

It goes without saying that in many instances, there are alternative algorithms to achieve similar
results as the ones you have gotten from ORCA. It is, of course, also the case that in some instances
ORCA just re-implements algorithms worked out by others. We are fully aware of that and we are also
fully appreciative of our colleagues work. Hence this citation list should not be read as indicating
that the listed papers, which are focused on our own work, are the only ones worth citing. It simply
meant to make it easier for users to cite ORCA specific papers. It is not a substitute for doing your
own literature research and citing the relevant literature in a scientifically appropriate manner.

List of essential papers. We consider these as the minimum necessary citations

  1. Neese, F.
     Software update: the ORCA program system, version 6.0
     WIRES Comput. Molec. Sci. 2025 15(1), e70019
     doi.org/10.1002/wcms.70019

List of papers to cite with high priority. The work reported in these papers was absolutely
necessary for this run to complete.
Our perspective: the developers of density functionals and basis sets usually get cited in chemistry papers
Good! But without the algorithms to do something with them, the functionals or basis sets would not do anything.
Hence, in our opinion, the algorithm design and method developments papers are equally worthy of getting cited

  1. Pavosevic, F.; Neese, F.; Valeev, E.F.
     Geminal-spanning orbitals make explicitly correlated reduced-scaling coupled-cluster methods robust, yet simple
     J. Chem. Phys. 2014 141 , 
     doi.org/10.1063/1.4890002
  2. Neese, F.
     The SHARK Integral Generation and Digestion System
     J. Comp. Chem. 2022 44(3), 381
     doi.org/10.1002/jcc.26942

List of suggested additional citations. These are papers that are important in the 'surrounding' of 
of this run, or papers that preceded the highly important papers. If you like your results we are grateful for a citation.

  1. Neese, F.
     The ORCA program system
     WIRES Comput. Molec. Sci. 2012 2(1), 73-78
     doi.org/10.1002/wcms.81
  2. Neese, F.
     Software update: the ORCA program system, version 4.0
     WIRES Comput. Molec. Sci. 2018 8(1), 1-6
     doi.org/10.1002/wcms.1327
  3. Neese, F.; Wennmohs, F.; Becker, U.; Riplinger, C.
     The ORCA quantum chemistry program package
     J. Chem. Phys. 2020 152(22), 224108
     doi.org/10.1063/5.0004608
  4. Neese, F.
     Software update: The ORCA program system—Version 5.0
     WIRES Comput. Molec. Sci. 2022 12(1), e1606
     doi.org/10.1002/wcms.1606

List of optional additional citations

  1. Neese, F.
     Approximate second-order SCF convergence for spin unrestricted wavefunctions
     Chem. Phys. Lett. 2000 325(1-3), 93-98
     doi.org/10.1016/s0009-2614(00)00662-x

Timings for individual modules:

Sum of individual times          ...     2158.673 sec (=  35.978 min)
Startup calculation              ...        3.476 sec (=   0.058 min)   0.2 %
SCF iterations                   ...       38.686 sec (=   0.645 min)   1.8 %
Property integrals               ...        1.964 sec (=   0.033 min)   0.1 %
Property calculations            ...        1.971 sec (=   0.033 min)   0.1 %
MDCI module                      ...     2112.576 sec (=  35.210 min)  97.9 %
                             ****ORCA TERMINATED NORMALLY****
TOTAL RUN TIME: 0 days 0 hours 36 minutes 0 seconds 536 msec
