
                                 *****************
                                 * O   R   C   A *
                                 *****************

                                            #,                                       
                                            ###                                      
                                            ####                                     
                                            #####                                    
                                            ######                                   
                                           ########,                                 
                                     ,,################,,,,,                         
                               ,,#################################,,                 
                          ,,##########################################,,             
                       ,#########################################, ''#####,          
                    ,#############################################,,   '####,        
                  ,##################################################,,,,####,       
                ,###########''''           ''''###############################       
              ,#####''   ,,,,##########,,,,          '''####'''          '####       
            ,##' ,,,,###########################,,,                        '##       
           ' ,,###''''                  '''############,,,                           
         ,,##''                                '''############,,,,        ,,,,,,###''
      ,#''                                            '''#######################'''  
     '                                                          ''''####''''         
             ,#######,   #######,   ,#######,      ##                                
            ,#'     '#,  ##    ##  ,#'     '#,    #''#        ,####,    ,#,          
            ##       ##  ##   ,#'  ##            #'  '#       #'       ,# #          
            ##       ##  #######   ##           ,######,      #####,      #          
            '#,     ,#'  ##    ##  '#,     ,#' ,#      #,     #,   #      #          
             '#######'   ##     ##  '#######'  #'      '#     '####' #    #          



                #########################################################
                #                        -***-                          #
                #          Department of theory and spectroscopy        #
                #                                                       #
                #                      Frank Neese                      #
                #                                                       #
                #     Directorship, Architecture, Infrastructure        #
                #                    SHARK, DRIVERS                     #
                #        Core code/Algorithms in most modules           #
                #                                                       #
                #        Max Planck Institute fuer Kohlenforschung      #
                #                Kaiser Wilhelm Platz 1                 #
                #                 D-45470 Muelheim/Ruhr                 #
                #                      Germany                          #
                #                                                       #
                #                  All rights reserved                  #
                #                        -***-                          #
                #########################################################


                         Program Version 6.1.1  -  RELEASE   -
                                (GIT: $487d211c$)
                          ($2025-11-21 10:33:24 +0100$)


 With contributions from (in alphabetic order):
[Max-Planck-Institut fuer Kohlenforschung]                               
  Daniel Aravena         : Magnetic Suceptibility                        
  Michael Atanasov       : Ab Initio Ligand Field Theory (pilot matlab implementation)
  Alexander A. Auer      : GIAO ZORA, VPT2 properties, NMR spectrum      
  Ute Becker             : All parallelization in ORCA, NUMFREQ, NUMCALC 
  Giovanni Bistoni       : ED, misc. LED, open-shell LED, HFLD           
  Dmytro Bykov           : pre 5.0 version of the SCF Hessian            
  Marcos Casanova-Páez   : Triplet and SCS-CIS(D). UHF-(DLPNO)-IP/EA/STEOM-CCSD. UHF-CVS-IP/STEOM-CCSD   
  Vijay G. Chilkuri      : MRCI spin determinant printing, contributions to CSF-ICE 
  Pauline Colinet        : FMM embedding                                 
  Dipayan Datta          : RHF DLPNO-CCSD density                        
  Achintya Kumar Dutta   : EOM-CC, STEOM-CC                              
  Nicolas Foglia         : Exact transition moments, OPA infrastructure, MCD improvements    
  Dmitry Ganyushin       : Spin-Orbit,Spin-Spin,Magnetic field MRCI      
  Miquel Garcia-Rates    : C-PCM and meta-GGA Hessian, CCSD/C-PCM, Gaussian charge scheme 
  Tiago L. C. Gouveia    : GS-ROHF, GS-ROCIS                             
  Yang Guo               : DLPNO-NEVPT2, F12-NEVPT2, CIM, IAO-localization        
  Andreas Hansen         : Spin unrestricted coupled pair/coupled cluster methods 
  Ingolf Harden          : AUTO-CI MPn and infrastructure                
  Benjamin Helmich-Paris : MC-RPA, TRAH-(SCF,CASSCF), AVAS, COSX integrals, SCF dyn. polar., MC-PDFT, srDFT 
  Lee Huntington         : MR-EOM, pCC                                   
  Robert Izsak           : Overlap fitted RIJCOSX, COSX-SCS-MP3, EOM     
  Riya Kayal             : Wick's Theorem for AUTO-CI, AUTO-CI UHF-CCSDT 
  Emily Kempfer          : AUTO-CI RHF CISDT and CCSDT, approximate NEVPT4
  Christian Kollmar      : KDIIS, OOCD, Brueckner-CCSD(T), CCSD density, CASPT2, CASPT2-K, improved NEVPT2 
  Axel Koslowski         : Symmetry handling                             
  Simone Kossmann        : meta-GGA functionals, TD-DFT gradient, OOMP2, (MP2 Hessian; deprecated post 5.0) 
  Lucas Lang             : DCDCAS, Hyperfine gauge corrections, ICE-SOC+SSC
  Marvin Lechner         : AUTO-CI (C++ implementation), FIC-MRCC        
  Spencer Leger          : CASSCF response                               
  Dagmar Lenk            : GEPOL surface, SMD, ORCA-2-JSON               
  Dimitrios Liakos       : Extrapolation schemes; Compound Job, Property file
  Dimitrios Manganas     : Further ROCIS development; embedding schemes. LFT, Crystal Embedding 
  Dimitrios Pantazis     : SARC Basis sets                               
  Anastasios Papadopoulos: AUTO-CI, single reference methods and gradients 
  Taras Petrenko         : pre 6.0 DFT Hessian and TD-DFT gradient,  ECA, NRVS 
  Petra Pikulova         : Analytic Raman intensities                    
  Peter Pinski           : DLPNO-MP2, DLPNO-MP2 Gradient                 
  Shashank Vittal Rao    : ES-AILFT, MagRelax                            
  Christoph Reimann      : Effective Core Potentials                     
  Marius Retegan         : Local ZFS, SOC                                
  Christoph Riplinger    : Optimizer, TS searches, QM/MM, DLPNO-CCSD(T), (RO)-DLPNO pert. Triples 
  Michael Roemelt        : Original ROCIS implementation, recursive CI coupling coefficients
  Masaaki Saitow         : Open-shell DLPNO-CCSD energy and density      
  Barbara Sandhoefer     : DKH picture change effects                    
  Yorick L. A. Schmerwitz: GMF and freeze-and-release deltaSCF, NEB S-IDPP initial path                    
  Kantharuban Sivalingam : CASSCF convergence/infrastructure, NEVPT2, NEVPT3, NEVPT4(SD), FIC-MRCI and CEPA variants
  Bernardo de Souza      : ESD, SOC TD-DFT                               
  Georgi L. Stoychev     : AutoAux, RI-MP2 NMR, DLPNO-MP2 response, X2C  
  Van Anh Tran           : RI-MP2 g-tensors                              
  Willem Van den Heuvel  : Paramagnetic NMR                              
  Zikuan Wang            : NOTCH, Electric field optimization            
  Frank Wennmohs         : Technical directorship and infrastructure     
  Hang Xu                : AUTO-CI-Response properties                   
                                                                         
[FACCTs GmbH]                                                            
  Markus Bursch, Nicolas Foglia, Miquel Garcia-Rates, Ingolf Harden, Hagen Neugebauer, Anastasios Papadopoulos, 
  Christoph Riplinger, Bernardo de Souza, Georgi L. Stoychev                                                    
                                                                 
  APM, various basis sets, CI-OPT, improved COSX, DLPNO-Multilevel,           
  DOCKER, DRACO, updates on ESD, Fragmentator, GOAT, IRC, LR-CPCM, L-BFGS, MBIS, meta-GGA TD-DFT gradient, ML-optimized integration grids, 
  MM, NACMEs, nearIR, NEB, NEB-TS, NL-DFT gradient (VV10), 2- and 3-layer-ONIOM, interface openCOSMO-RS, QMMM,   
  Crystal-QMMM, RESP, rigid body optimization, SF, symmetry and pop. for TD-DFT, various functionals, SOLVATOR                                   
                                                                         
[Other institutions]                                                     
  V. Asgeirsson          : NEB                                           
  Christoph Bannwarth    : sTDA-DFT, sTD-DFT, PBEh-3c, B97-3c, D3        
  Giovanni Bistoni       : ETS/NOCV, ADLD/ADEX, COVALED                  
  Martin Brehm           : Molecular dynamics                            
  Ronald Cardenas        : ETS/NOCV                                      
  Martina Colucci        : COVALED                                       
  Sebastian Ehlert       : rSCAN, r2SCAN, r2SCAN-3c, D4, dhf basis sets  
  Marvin Friede          : D4 for Fr, Ra, Ac-Lr                          
  Lars Goerigk           : TD-DFT with DH, B97 family of functionals     
  Stefan Grimme          : VdW corrections, initial TS optimization, DFT functionals, gCP, sTDA/sTD-DF 
  Waldemar Hujo          : DFT-NL                                        
  H. Jonsson             : NEB                                           
  Holger Kruse           : gCP                                           
  Marcel Mueller         : wB97X-3c, vDZP basis set                      
  Hagen Neugebauer       : wr2SCAN, Native XTB                           
  Gianluca Regni         : ADLD/ADEX                                     
  Tobias Risthaus        : pre 6.0 range-separated hybrid DFT and stability analysis
  Lukas Wittmann         : regularized MP2, r2SCAN double-hybrids, wr2SCAN        
                                                                         
We gratefully acknowledge several colleagues who have allowed us to      
interface, adapt or use parts of their codes:                            
  Ed Valeev, F. Pavosevic, A. Kumar             : LibInt (2-el integral package), F12 methods 
  Garnet Chan, S. Sharma, J. Yang, R. Olivares  : DMRG                   
  Ulf Ekstrom                                   : XCFun DFT Library      
  Mihaly Kallay                                 : mrcc  (arbitrary order and MRCC methods)
  Frank Weinhold                                : gennbo (NPA and NBO analysis)           
  Simon Mueller                                 : openCOSMO-RS                            
  Christopher J. Cramer and Donald G. Truhlar   : smd solvation model                     
  S Lehtola, MJT Oliveira, MAL Marques          : LibXC Library                           
  Liviu Ungur et al                             : ANISO software                          


 Your calculation uses the libint2 library for the computation of 2-el integrals
 For citations please refer to: http://libint.valeyev.net

 Your ORCA version has been built with support for libXC version: 7.0.0
 For citations please refer to: https://libxc.gitlab.io

 This ORCA versions uses:
   CBLAS   interface :  Fast vector & matrix operations
   LAPACKE interface :  Fast linear algebra routines
   SCALAPACK package :  Parallel linear algebra routines
   Shared memory     :  Shared parallel matrices
   BLAS/LAPACK       :  OpenBLAS 0.3.29  USE64BITINT DYNAMIC_ARCH NO_AFFINITY Zen SINGLE_THREADED
        Core in use  :  Zen
   Copyright (c) 2011-2014, The OpenBLAS Project


  ***********************************
  * Starting time: Tue Mar 10 14:27:09 2026
  * Host name:     c1-15
  * Process ID:    1251637
  * Working dir.:  /tmp/lscratch/avcopan/43461779
  ***********************************

NOTE: MaxCore=6000 MB was set to SCF,MP2,MDCI,CIPSI,MRCI,RASCI and CIS
      => If you want to overwrite this, your respective input block should be placed after the MaxCore statement


***************************************
The coordinates will be read from file: guess.xyz
***************************************


Your calculation utilizes the atom-pairwise dispersion correction
based on EEQ partial charges (D4)


Warning: RI is on but no J-basis has been assigned. Assigning Def2/J (nothing to worry about!)
================================================================================

----- Orbital basis set information -----
Your calculation utilizes the basis: def2-TZVPP
   F. Weigend and R. Ahlrichs, Phys. Chem. Chem. Phys. 7, 3297 (2005).

----- AuxJ basis set information -----
Your calculation utilizes the auxiliary basis: def2/J
   H-Rn: F. Weigend, Phys. Chem. Chem. Phys. 8, 1057 (2006).
   Fr-Lr: K. Eichkorn, F. Weigend, O. Treutler, R. Ahlrichs; Theor. Chem. Acc. 97, 119 (1997).

----- AuxC basis set information -----
Your calculation utilizes the auxiliary basis: def2-TZVPP/C
  H-La, Hf-Rn : A. Hellweg, C. Hattig, S. Hofener and W. Klopper, Theor. Chem. Acc. 117, 587 (2007).
        Ce-Lu : J. Chmela and M. E. Harding, Mol. Phys. (2018).

================================================================================
                                        WARNINGS
                       Please study these warnings very carefully!
================================================================================


WARNING: The frozen-core approximation for MP2-gradient calculations is turned on by default.

WARNING: The environment variable RSH_COMMAND is not set!
  ===> : All Displacements for the Numerical Hessian or Gradient calculation
         will be started on localhost

WARNING: Geometry Optimization
  ===> : Switching off AutoStart
         For restart on a previous wavefunction, please use MOREAD

WARNING: The frozen-core approximation is turned on by default for 
         the MP2 part of double-hybrid DFT.

================================================================================
                                       INPUT FILE
================================================================================
NAME = opt.inp
|  1> % MaxCore 6000
|  2> ! PAL8
|  3> ! REVDSD-PBEP86-D4/2021 def2-TZVPP def2-TZVPP/c
|  4> ! VeryTightSCF DefGrid3
|  5> ! Opt
|  6> ! NumFreq
|  7> * xyzfile 0 1 guess.xyz
|  8> 
|  9>                          ****END OF INPUT****
================================================================================

                       *****************************
                       * Geometry Optimization Run *
                       *****************************

Geometry optimization settings:
Update method            Update   .... BFGS
Choice of coordinates    CoordSys .... (2022) Redundant Internals
Initial Hessian          InHess   .... Almloef's Model
Max. no of cycles        MaxIter  .... 50

Convergence Tolerances:
Energy Change            TolE     ....  5.0000e-06 Eh
Max. Gradient            TolMAXG  ....  3.0000e-04 Eh/bohr
RMS Gradient             TolRMSG  ....  1.0000e-04 Eh/bohr
Max. Displacement        TolMAXD  ....  4.0000e-03 bohr
RMS Displacement         TolRMSD  ....  2.0000e-03 bohr
Strict Convergence                .... False

------------------------------------------------------------------------------
                        ORCA OPTIMIZATION COORDINATE SETUP
------------------------------------------------------------------------------

The optimization will be done in redundant internal coordinates (2022)
Making redundant internal coordinates   ...  (2022 redundants) done
Evaluating the initial hessian          ...  (Almloef) done
Evaluating the coordinates              ...  done
Calculating the B-matrix                .... done
Calculating the G-matrix                .... done
The number of degrees of freedom        ....   63

    -----------------------------------------------------------------
                    Redundant Internal Coordinates


    -----------------------------------------------------------------
         Definition                    Initial Value    Approx d2E/dq
    -----------------------------------------------------------------
      1. B(C   1,C   0)                  1.5442         0.354616   
      2. B(C   2,C   1)                  1.5442         0.354594   
      3. B(C   3,C   2)                  1.5094         0.403011   
      4. B(C   4,C   3)                  1.3351         0.764284   
      5. B(C   4,C   0)                  1.5093         0.403052   
      6. B(H   5,C   0)                  1.0963         0.351909   
      7. B(H   6,C   0)                  1.0924         0.356956   
      8. B(H   7,C   1)                  1.0905         0.359388   
      9. B(H   8,C   1)                  1.0922         0.357177   
     10. B(H   9,C   2)                  1.0924         0.356953   
     11. B(H  10,C   2)                  1.0963         0.351921   
     12. B(H  11,C   3)                  1.0831         0.369313   
     13. B(H  12,C   4)                  1.0831         0.369314   
     14. A(C   1,C   0,H   6)          112.4103         0.321100   
     15. A(H   5,C   0,H   6)          106.8267         0.289393   
     16. A(C   1,C   0,H   5)          111.7082         0.320353   
     17. A(C   1,C   0,C   4)          102.7379         0.364837   
     18. A(C   4,C   0,H   5)          110.2090         0.327155   
     19. A(C   4,C   0,H   6)          113.0308         0.327924   
     20. A(C   2,C   1,H   8)          108.9338         0.321129   
     21. A(C   2,C   1,H   7)          112.9126         0.321454   
     22. A(C   0,C   1,H   7)          112.9097         0.321457   
     23. A(C   0,C   1,C   2)          105.3651         0.356955   
     24. A(H   7,C   1,H   8)          107.6869         0.290377   
     25. A(C   0,C   1,H   8)          108.9333         0.321133   
     26. A(C   1,C   2,C   3)          102.7362         0.364827   
     27. A(H   9,C   2,H  10)          106.8268         0.289394   
     28. A(C   1,C   2,H  10)          111.7176         0.320352   
     29. A(C   3,C   2,H   9)          113.0242         0.327918   
     30. A(C   1,C   2,H   9)          112.4068         0.321096   
     31. A(C   3,C   2,H  10)          110.2116         0.327152   
     32. A(C   4,C   3,H  11)          124.9308         0.367294   
     33. A(C   2,C   3,H  11)          123.2103         0.329766   
     34. A(C   2,C   3,C   4)          111.7993         0.417190   
     35. A(C   3,C   4,H  12)          124.9243         0.367294   
     36. A(C   0,C   4,H  12)          123.2177         0.329772   
     37. A(C   0,C   4,C   3)          111.7991         0.417198   
     38. D(C   2,C   1,C   0,C   4)    -22.3997         0.010111   
     39. D(C   2,C   1,C   0,H   5)     95.7120         0.010111   
     40. D(H   7,C   1,C   0,H   5)    -27.9617         0.010111   
     41. D(H   7,C   1,C   0,H   6)     92.1178         0.010111   
     42. D(H   7,C   1,C   0,C   4)   -146.0735         0.010111   
     43. D(C   2,C   1,C   0,H   6)   -144.2084         0.010111   
     44. D(C   3,C   2,C   1,C   0)     22.3995         0.010110   
     45. D(H   9,C   2,C   1,H   8)     27.4534         0.010110   
     46. D(H   9,C   2,C   1,H   7)    -92.1306         0.010110   
     47. D(H   9,C   2,C   1,C   0)    144.1974         0.010110   
     48. D(C   3,C   2,C   1,H   8)    -94.3444         0.010110   
     49. D(C   3,C   2,C   1,H   7)    146.0715         0.010110   
     50. D(C   4,C   3,C   2,H  10)    104.7676         0.012046   
     51. D(C   4,C   3,C   2,H   9)   -135.7844         0.012046   
     52. D(C   4,C   3,C   2,C   1)    -14.4069         0.012046   
     53. D(H  11,C   3,C   2,H   9)     46.8991         0.012046   
     54. D(H  11,C   3,C   2,C   1)    168.2766         0.012046   
     55. D(H  12,C   4,C   3,H  11)     -0.0141         0.041812   
     56. D(H  12,C   4,C   3,C   2)   -177.2755         0.041812   
     57. D(C   0,C   4,C   3,H  11)    177.2617         0.041812   
     58. D(C   0,C   4,C   3,C   2)      0.0004         0.041812   
     59. D(H  12,C   4,C   0,H   5)     72.5735         0.012048   
     60. D(H  12,C   4,C   0,C   1)   -168.2631         0.012048   
     61. D(C   3,C   4,C   0,H   6)    135.7930         0.012048   
     62. D(C   3,C   4,C   0,H   5)   -104.7567         0.012048   
     63. D(C   3,C   4,C   0,C   1)     14.4067         0.012048   
    -----------------------------------------------------------------

Number of atoms                         .... 13
Number of degrees of freedom            .... 63


         *************************************************************
         *                GEOMETRY OPTIMIZATION CYCLE   1            *
         *************************************************************
---------------------------------
CARTESIAN COORDINATES (ANGSTROEM)
---------------------------------
  C      1.893576    1.417194   -0.019660
  C      0.663996    2.295658    0.298013
  C     -0.562560    1.415453   -0.026539
  C     -0.001292    0.017104    0.061482
  C      1.333849    0.018063    0.065216
  H      2.280195    1.609930   -1.027218
  H      2.719326    1.589978    0.674309
  H      0.664887    3.240234   -0.247009
  H      0.660851    2.528298    1.365164
  H     -1.392321    1.586977    0.662947
  H     -0.944001    1.607606   -1.036169
  H     -0.620868   -0.871247    0.072118
  H      1.954530   -0.869464    0.079540

----------------------------
CARTESIAN COORDINATES (A.U.)
----------------------------
  NO LB      ZA    FRAG     MASS         X           Y           Z
   0 C     6.0000    0    12.011    3.578340    2.678108   -0.037153
   1 C     6.0000    0    12.011    1.254770    4.338165    0.563163
   2 C     6.0000    0    12.011   -1.063085    2.674818   -0.050152
   3 C     6.0000    0    12.011   -0.002441    0.032321    0.116185
   4 C     6.0000    0    12.011    2.520609    0.034134    0.123240
   5 H     1.0000    0     1.008    4.308944    3.042327   -1.941161
   6 H     1.0000    0     1.008    5.138781    3.004623    1.274259
   7 H     1.0000    0     1.008    1.256454    6.123156   -0.466779
   8 H     1.0000    0     1.008    1.248827    4.777791    2.579786
   9 H     1.0000    0     1.008   -2.631106    2.998953    1.252789
  10 H     1.0000    0     1.008   -1.783904    3.037936   -1.958076
  11 H     1.0000    0     1.008   -1.173271   -1.646418    0.136283
  12 H     1.0000    0     1.008    3.693526   -1.643049    0.150309

--------------------------------
INTERNAL COORDINATES (ANGSTROEM)
--------------------------------
 C      0   0   0     0.000000000000     0.00000000     0.00000000
 C      1   0   0     1.544177147443     0.00000000     0.00000000
 C      2   1   0     1.544194282711   105.36505374     0.00000000
 C      3   2   1     1.509354254313   102.73616718    22.39953125
 C      4   3   2     1.335146057550   111.79928655   345.59306080
 H      1   2   3     1.096263622570   111.70820037    95.71204718
 H      1   2   3     1.092387396880   112.41029265   215.79159453
 H      2   1   3     1.090538758071   112.90969881   236.32620893
 H      2   1   3     1.092218770444   108.93326173   116.74434329
 H      3   2   1     1.092389747462   112.40675053   144.19739860
 H      3   2   1     1.096254048206   111.71761597   264.28131828
 H      4   3   2     1.083123047775   123.21030994   168.27662268
 H      5   4   3     1.083122548970   124.92429088   182.72452623

---------------------------
INTERNAL COORDINATES (A.U.)
---------------------------
 C      0   0   0     0.000000000000     0.00000000     0.00000000
 C      1   0   0     2.918071910926     0.00000000     0.00000000
 C      2   1   0     2.918104291891   105.36505374     0.00000000
 C      3   2   1     2.852266179721   102.73616718    22.39953125
 C      4   3   2     2.523060397554   111.79928655   345.59306080
 H      1   2   3     2.071638017238   111.70820037    95.71204718
 H      1   2   3     2.064313012250   112.41029265   215.79159453
 H      2   1   3     2.060819591181   112.90969881   236.32620893
 H      2   1   3     2.063994354467   108.93326173   116.74434329
 H      3   2   1     2.064317454207   112.40675053   144.19739860
 H      3   2   1     2.071619924311   111.71761597   264.28131828
 H      4   3   2     2.046805929634   123.21030994   168.27662268
 H      5   4   3     2.046804987028   124.92429088   182.72452623

---------------------
BASIS SET INFORMATION
---------------------
There are 2 groups of distinct atoms

 Group   1 Type C   : 11s6p2d1f contracted to 5s3p2d1f pattern {62111/411/11/1}
 Group   2 Type H   : 5s2p1d contracted to 3s2p1d pattern {311/11/1}

Atom   0C    basis set group =>   1
Atom   1C    basis set group =>   1
Atom   2C    basis set group =>   1
Atom   3C    basis set group =>   1
Atom   4C    basis set group =>   1
Atom   5H    basis set group =>   2
Atom   6H    basis set group =>   2
Atom   7H    basis set group =>   2
Atom   8H    basis set group =>   2
Atom   9H    basis set group =>   2
Atom  10H    basis set group =>   2
Atom  11H    basis set group =>   2
Atom  12H    basis set group =>   2
---------------------------------
AUXILIARY/J BASIS SET INFORMATION
---------------------------------
There are 2 groups of distinct atoms

 Group   1 Type C   : 12s5p4d2f1g contracted to 6s4p3d1f1g pattern {711111/2111/211/2/1}
 Group   2 Type H   : 5s2p1d contracted to 3s1p1d pattern {311/2/1}

Atom   0C    basis set group =>   1
Atom   1C    basis set group =>   1
Atom   2C    basis set group =>   1
Atom   3C    basis set group =>   1
Atom   4C    basis set group =>   1
Atom   5H    basis set group =>   2
Atom   6H    basis set group =>   2
Atom   7H    basis set group =>   2
Atom   8H    basis set group =>   2
Atom   9H    basis set group =>   2
Atom  10H    basis set group =>   2
Atom  11H    basis set group =>   2
Atom  12H    basis set group =>   2
---------------------------------
AUXILIARY/C BASIS SET INFORMATION
---------------------------------
There are 2 groups of distinct atoms

 Group   1 Type C   : 8s6p5d3f1g contracted to 8s6p4d3f1g pattern {11111111/111111/2111/111/1}
 Group   2 Type H   : 4s3p2d1f contracted to 4s3p2d1f pattern {1111/111/11/1}

Atom   0C    basis set group =>   1
Atom   1C    basis set group =>   1
Atom   2C    basis set group =>   1
Atom   3C    basis set group =>   1
Atom   4C    basis set group =>   1
Atom   5H    basis set group =>   2
Atom   6H    basis set group =>   2
Atom   7H    basis set group =>   2
Atom   8H    basis set group =>   2
Atom   9H    basis set group =>   2
Atom  10H    basis set group =>   2
Atom  11H    basis set group =>   2
Atom  12H    basis set group =>   2


           ************************************************************
           *        Program running with 8 parallel MPI-processes     *
           *              working on a common directory               *
           ************************************************************
------------------------------------------------------------------------------
                             ORCA STARTUP CALCULATIONS
                           -- RI-GTO INTEGRALS CHOSEN --
------------------------------------------------------------------------------
------------------------------------------------------------------------------
                   ___                                                        
                  /   \      - P O W E R E D   B Y -                         
                 /     \                                                     
                 |  |  |   _    _      __       _____    __    __             
                 |  |  |  | |  | |    /  \     |  _  \  |  |  /  |          
                  \  \/   | |  | |   /    \    | | | |  |  | /  /          
                 / \  \   | |__| |  /  /\  \   | |_| |  |  |/  /          
                |  |  |   |  __  | /  /__\  \  |    /   |      \           
                |  |  |   | |  | | |   __   |  |    \   |  |\   \          
                \     /   | |  | | |  |  |  |  | |\  \  |  | \   \       
                 \___/    |_|  |_| |__|  |__|  |_| \__\ |__|  \__/        
                                                                              
                      - O R C A' S   B I G   F R I E N D -                    
                                      &                                       
                       - I N T E G R A L  F E E D E R -                       
                                                                              
 v1 FN, 2020, v2 2021, v3 2022-2024                                           
------------------------------------------------------------------------------


----------------------
SHARK INTEGRAL PACKAGE
----------------------

Number of atoms                             ...     13
Number of basis functions                   ...    267
Number of shells                            ...    103
Maximum angular momentum                    ...      3
Integral batch strategy                     ... SHARK/LIBINT Hybrid
RI-J (if used) integral strategy            ... SPLIT-RIJ (Revised 2003 algorithm where possible)
Printlevel                                  ...      1
Contraction scheme used                     ... SEGMENTED contraction
Prescreening option                         ... SCHWARTZ
   Thresh                                   ... 1.000e-12
   Tcut                                     ... 1.000e-14
   Tpresel                                  ... 1.000e-14 
Coulomb Range Separation                    ... NOT USED
Exchange Range Separation                   ... NOT USED
Multipole approximations                    ... NOT USED
Finite Nucleus Model                        ... NOT USED
CABS basis                                  ... NOT available
Auxiliary Coulomb fitting basis             ... AVAILABLE
   # of basis functions in Aux-J            ...    333
   # of shells in Aux-J                     ...    115
   Maximum angular momentum in Aux-J        ...      4
Auxiliary J/K fitting basis                 ... NOT available
Auxiliary Correlation fitting basis         ... AVAILABLE
   # of basis functions in Aux-C            ...    620
   # of shells in Aux-C                     ...    190
   Maximum angular momentum in Aux-C        ...      4
Auxiliary 'external' fitting basis          ... NOT available

Checking pre-screening integrals            ... done (  0.0 sec) Dimension = 103
   => SHARK Basis and OBASIS are compatible. Storing Pre-screening
Shell pair information
Shell pair cut-off parameter TPreSel        ...   1.0e-14
Total number of shell pairs                 ...      5356
Shell pairs after pre-screening             ...      5228
Total number of primitive shell pairs       ...     13664
Primitive shell pairs kept                  ...     11269
          la=0 lb=0:   1172 shell pairs
          la=1 lb=0:   1477 shell pairs
          la=1 lb=1:    485 shell pairs
          la=2 lb=0:    868 shell pairs
          la=2 lb=1:    550 shell pairs
          la=2 lb=2:    171 shell pairs
          la=3 lb=0:    245 shell pairs
          la=3 lb=1:    155 shell pairs
          la=3 lb=2:     90 shell pairs
          la=3 lb=3:     15 shell pairs

Checking whether 4 symmetric matrices of dimension 267 fit in memory
:Max Core in MB      =   6000.00
 MB in use           =      9.90
 MB left             =   5990.10
 MB needed           =      1.09
 Data fit in memory  = YES
Calculating RI/J V-Matrix + Cholesky decomp.... done (  0.0 sec)
Calculating RI/C V-Matrix + Cholesky decomp.... done (  0.0 sec)
Calculating Nuclear repulsion               ... done (  0.0 sec) ENN=    171.562567849548 Eh

Diagonalization of the overlap matrix:
Smallest eigenvalue                        ... 8.865e-05
Time for diagonalization                   ...    0.018 sec
Threshold for overlap eigenvalues          ... 1.000e-07
Number of eigenvalues below threshold      ... 0
Time for construction of square roots      ...    0.007 sec
Total time needed                          ...    0.027 sec

-------------------
DFT GRID GENERATION
-------------------

General Integration Accuracy     IntAcc      ... 4.959
Radial Grid Type                 RadialGrid  ... OptM3 with GC (2021)
Angular Grid (max. ang.)         AngularGrid ... 6 (Lebedev-590)
Angular grid pruning method      GridPruning ... 4 (adaptive)
Weight generation scheme         WeightScheme... mBecke (2022)
Basis function cutoff            BFCut       ... 1.0000e-12
Integration weight cutoff        WCut        ... 1.0000e-14
Partially contracted basis set               ... off
Rotationally invariant grid construction     ... off
Angular grids for H and He will be reduced by one unit

Total number of grid points                  ...   141383
Total number of batches                      ...     2216
Average number of points per batch           ...       63
Average number of grid points per atom       ...    10876

--------------------
COSX GRID GENERATION
--------------------

GRIDX 1
-------
General Integration Accuracy     IntAcc      ... 4.020
Radial Grid Type                 RadialGrid  ... OptM3 with GC (2021)
Angular Grid (max. ang.)         AngularGrid ... 2 (Lebedev-110)
Angular grid pruning method      GridPruning ... 4 (adaptive)
Weight generation scheme         WeightScheme... mBecke (2022)
Basis function cutoff            BFCut       ... 1.0000e-12
Integration weight cutoff        WCut        ... 1.0000e-14
Partially contracted basis set               ... on
Rotationally invariant grid construction     ... off
Angular grids for H and He will be reduced by one unit

Total number of grid points                  ...    15187
Total number of batches                      ...      126
Average number of points per batch           ...      120
Average number of grid points per atom       ...     1168
UseSFitting                                  ... on

GRIDX 2
-------
General Integration Accuracy     IntAcc      ... 4.338
Radial Grid Type                 RadialGrid  ... OptM3 with GC (2021)
Angular Grid (max. ang.)         AngularGrid ... 3 (Lebedev-194)
Angular grid pruning method      GridPruning ... 4 (adaptive)
Weight generation scheme         WeightScheme... mBecke (2022)
Basis function cutoff            BFCut       ... 1.0000e-12
Integration weight cutoff        WCut        ... 1.0000e-14
Partially contracted basis set               ... on
Rotationally invariant grid construction     ... off
Angular grids for H and He will be reduced by one unit

Total number of grid points                  ...    33211
Total number of batches                      ...      268
Average number of points per batch           ...      123
Average number of grid points per atom       ...     2555
UseSFitting                                  ... on

GRIDX 3
-------
General Integration Accuracy     IntAcc      ... 4.871
Radial Grid Type                 RadialGrid  ... OptM3 with GC (2021)
Angular Grid (max. ang.)         AngularGrid ... 4 (Lebedev-302)
Angular grid pruning method      GridPruning ... 4 (adaptive)
Weight generation scheme         WeightScheme... mBecke (2022)
Basis function cutoff            BFCut       ... 1.0000e-12
Integration weight cutoff        WCut        ... 1.0000e-14
Partially contracted basis set               ... on
Rotationally invariant grid construction     ... off
Angular grids for H and He will be reduced by one unit

Total number of grid points                  ...    65424
Total number of batches                      ...      518
Average number of points per batch           ...      126
Average number of grid points per atom       ...     5033
UseSFitting                                  ... on
Grids setup in   3.0 sec
Initializing property integral containers    ... done (  0.0 sec)

SHARK setup successfully completed in   3.4 seconds

Maximum memory used throughout the entire STARTUP-calculation: 35.2 MB


           ************************************************************
           *        Program running with 8 parallel MPI-processes     *
           *              working on a common directory               *
           ************************************************************
-------------------------------------------------------------------------------
                                 ORCA GUESS
                   Start orbitals & Density for SCF / CASSCF
-------------------------------------------------------------------------------

------------
SCF SETTINGS
------------
Hamiltonian:
 Density Functional     Method          .... DFT(GTOs)
 Exchange Functional    Exchange        .... PBE
   PBE kappa parameter   XKappa         ....  0.804000
   PBE mue parameter    XMuePBE         ....  0.219520
 Correlation Functional Correlation     .... P86
 LDA part of GGA corr.  LDAOpt          .... VWN-5
 Gradients option       PostSCFGGA      .... off
 Hybrid DFT is turned on
   Fraction HF Exchange ScalHFX         ....  0.690000
   Scaling of DF-GGA-X  ScalDFX         ....  0.310000
   Scaling of DF-GGA-C  ScalDFC         ....  0.422400
   Scaling of DF-LDA-C  ScalLDAC        ....  0.422400
   Perturbative correction              ....  1.000000
 RI-approximation to the Coulomb term is turned on
   Number of AuxJ basis functions       .... 333
   RIJ-COSX (HFX calculated with COS-X)).... on


General Settings:
 Integral files         IntName         .... opt
 Hartree-Fock type      HFTyp           .... RHF
 Total Charge           Charge          ....    0
 Multiplicity           Mult            ....    1
 Number of Electrons    NEL             ....   38
 Basis Dimension        Dim             ....  267
 Nuclear Repulsion      ENuc            ....    171.5625678495 Eh

Convergence Acceleration:
 AO-DIIS                CNVDIIS         .... on
   Start iteration      DIISMaxIt       ....    12
   Startup error        DIISStart       ....  0.200000
   # of expansion vecs  DIISMaxEq       ....     5
   Bias factor          DIISBfac        ....   1.050
   Max. coefficient     DIISMaxC        ....  10.000
 MO-DIIS                CNVKDIIS        .... off
 Trust-Rad. Augm. Hess. CNVTRAH         .... auto
   Auto Start mean grad. ratio tolernc. ....  1.125000
   Auto Start start iteration           ....    50
   Auto Start num. interpolation iter.  ....    10
   Max. Number of Micro iterations      ....    24
   Max. Number of Macro iterations      .... Maxiter - #DIIS iter
   Number of Davidson start vectors     ....     2
   Converg. threshold    (grad. norm)   ....   2.000e-06
   Grad. Scal. Fac. for Micro threshold ....   0.100
   Minimum threshold for Micro iter.    ....   1.000e-02
   NR start threshold (gradient norm)   ....   1.000e-04
   Initial trust radius                 ....   0.400
   Minimum AH scaling param. (alpha)    ....   1.000
   Maximum AH scaling param. (alpha)    .... 1000.000
   Quad. conv. algorithm                .... NR
   White noise on init. David. guess    .... on
   Maximum white noise                  ....   0.010
   Pseudo random numbers                .... off
   Inactive MOs                         .... canonical
   Orbital update algorithm             .... Taylor
   Preconditioner                       .... Diag
   Full preconditioner red. dimension   ....   250
 SOSCF                 CNVSOSCF           .... on
   Start iteration     SOSCFMaxIt         ....   150
   Startup grad/error  SOSCFStart         ....  0.003300
   Hessian update      SOSCFHessUp        .... L-BFGS
   Autom. constraints  SOSCFAutoConstrain .... off
 Level Shifting         CNVShift        .... on
   Level shift para.    LevelShift      ....    0.2500
   Turn off err/grad.   ShiftErr        ....    0.0010
 Zerner damping         CNVZerner       .... off
 Static damping         CNVDamp         .... on
   Fraction old density DampFac         ....    0.7000
   Max. Damping (<1)    DampMax         ....    0.9800
   Min. Damping (>=0)   DampMin         ....    0.0000
   Turn off err/grad.   DampErr         ....    0.1000

SCF Procedure:
 Maximum # iterations   MaxIter         ....   125
 SCF integral mode      SCFMode         .... Direct
   Integral package                     .... SHARK and LIBINT hybrid scheme
 Reset frequency        DirectResetFreq ....    20
 Integral Threshold     Thresh          ....  1.000e-12 Eh
 Primitive CutOff       TCut            ....  1.000e-14 Eh

Convergence Tolerance:
 Convergence Check Mode ConvCheckMode   .... Total+1el-Energy
 Convergence forced     ConvForced      .... 0
 Energy Change          TolE            ....  1.000e-09 Eh
 1-El. energy change                    ....  1.000e-06 Eh
 Orbital Gradient       TolG            ....  2.000e-06
 Orbital Rotation angle TolX            ....  2.000e-06
 DIIS Error             TolErr          ....  1.000e-08

------------------------------
INITIAL GUESS: MODEL POTENTIAL
------------------------------
Loading Hartree-Fock densities                     ... done
Calculating cut-offs                               ... done
Initializing the effective Hamiltonian             ... done
Setting up the integral package (SHARK)            ... done
Starting the Coulomb interaction                   ... done (   0.1 sec)
Making the grid                                    ... done (   0.1 sec)
Mapping shells                                     ... done
Starting the XC term evaluation                    ... done (   0.1 sec)
  promolecular density results
     # of electrons  =     37.993646955
     EX              =    -27.918859678
     EC              =      0.002149567
     EX+EC           =    -27.916710111
Transforming the Hamiltonian                       ... done (   0.0 sec)
Diagonalizing the Hamiltonian                      ... done (   0.0 sec)
Back transforming the eigenvectors                 ... done (   0.0 sec)
Now organizing SCF variables                       ... done
                      ------------------
                      INITIAL GUESS DONE (   0.3 sec)
                      ------------------
             **** ENERGY FILE WAS UPDATED (opt.en.tmp) ****
Finished Guess after   2.2 sec
Maximum memory used throughout the entire GUESS-calculation: 15.2 MB


           ************************************************************
           *        Program running with 8 parallel MPI-processes     *
           *              working on a common directory               *
           ************************************************************

-------------------------------------------------------------------------------------------
                                      ORCA LEAN-SCF
                              memory conserving SCF solver
-------------------------------------------------------------------------------------------

----------------------------------------D-I-I-S--------------------------------------------
Iteration    Energy (Eh)           Delta-E    RMSDP     MaxDP     DIISErr   Damp  Time(sec)
-------------------------------------------------------------------------------------------
               ***  Starting incremental Fock matrix formation  ***
    1    -194.3872671230089111     0.00e+00  2.55e-03  2.59e-02  1.60e-01  0.700   3.7
    2    -194.4551938021860167    -6.79e-02  2.00e-03  1.87e-02  9.76e-02  0.700   2.2
                               ***Turning on AO-DIIS***
    3    -194.4914506432134829    -3.63e-02  1.08e-03  9.21e-03  5.27e-02  0.700   2.3
    4    -194.5133565366761275    -2.19e-02  2.51e-03  2.06e-02  3.42e-02  0.000   2.2
    5    -194.5606888701065316    -4.73e-02  3.87e-04  3.73e-03  3.53e-03  0.000   2.2
                              *** Initializing SOSCF ***
---------------------------------------S-O-S-C-F--------------------------------------
Iteration    Energy (Eh)           Delta-E    RMSDP     MaxDP     MaxGrad    Time(sec)
--------------------------------------------------------------------------------------
    6    -194.5607829066596253    -9.40e-05  2.03e-04  2.10e-03  8.97e-04     2.1
               *** Restarting incremental Fock matrix formation ***
    7    -194.5608042142459624    -2.13e-05  1.23e-04  1.22e-03  2.94e-04     4.0
    8    -194.5608065255338204    -2.31e-06  5.02e-05  4.65e-04  8.58e-05     3.2
    9    -194.5608067204480278    -1.95e-07  1.36e-05  1.29e-04  4.52e-05     3.1
   10    -194.5608067733574273    -5.29e-08  1.72e-06  1.83e-05  3.08e-06     2.9
   11    -194.5608067737425415    -3.85e-10  1.91e-07  1.59e-06  9.15e-07     2.7
                 **** Energy Check signals convergence ****

               *****************************************************
               *                     SUCCESS                       *
               *           SCF CONVERGED AFTER  11 CYCLES          *
               *****************************************************

Recomputing exchange energy using gridx3       ... done (    5.430 sec)
Old exchange energy                            :    -19.878985049 Eh
New exchange energy                            :    -19.878976960 Eh
Exchange energy change after final integration :      0.000008088 Eh
Total energy after final integration           :   -194.560798685 Eh
             **** ENERGY FILE WAS UPDATED (opt.en.tmp) ****

----------------
TOTAL SCF ENERGY
----------------

Total Energy       :       -194.56079868531970 Eh           -5294.26849 eV

Components:
Nuclear Repulsion  :        171.56256784954823 Eh            4668.45481 eV
Electronic Energy  :       -366.12337462333704 Eh           -9962.72352 eV
One Electron Energy:       -600.86450170992202 Eh          -16350.35433 eV
Two Electron Energy:        234.74112708658498 Eh            6387.63081 eV

Virial components:
Potential Energy   :       -388.52684987082495 Eh          -10572.35307 eV
Kinetic Energy     :        193.96605118550525 Eh            5278.08459 eV
Virial Ratio       :          2.00306624533613

DFT components:
N(Alpha)           :       18.999999060924 electrons
N(Beta)            :       18.999999060924 electrons
N(Total)           :       37.999998121849 electrons
E(X)               :       -8.875206140027 Eh       
E(C)               :       -0.571929366963 Eh       
E(XC)              :       -9.447135506989 Eh       

---------------
SCF CONVERGENCE
---------------

  Last Energy change         ...    3.8511e-10  Tolerance :   1.0000e-09
  Last MAX-Density change    ...    1.5922e-06  Tolerance :   1.0000e-08
  Last RMS-Density change    ...    1.9056e-07  Tolerance :   1.0000e-09
  Last DIIS Error            ...    8.9698e-04  Tolerance :   1.0000e-08
  Last Orbital Gradient      ...    9.1525e-07  Tolerance :   2.0000e-06
  Last Orbital Rotation      ...    1.1623e-06  Tolerance :   2.0000e-06


----------------
ORBITAL ENERGIES
----------------

  NO   OCC          E(Eh)            E(eV) 
   0   2.0000     -10.807708      -294.0927 
   1   2.0000     -10.807618      -294.0902 
   2   2.0000     -10.806997      -294.0733 
   3   2.0000     -10.805658      -294.0369 
   4   2.0000     -10.805234      -294.0254 
   5   2.0000      -1.020804       -27.7775 
   6   2.0000      -0.865919       -23.5629 
   7   2.0000      -0.860582       -23.4176 
   8   2.0000      -0.705307       -19.1924 
   9   2.0000      -0.649203       -17.6657 
  10   2.0000      -0.606963       -16.5163 
  11   2.0000      -0.572593       -15.5811 
  12   2.0000      -0.493599       -13.4315 
  13   2.0000      -0.473483       -12.8841 
  14   2.0000      -0.436073       -11.8661 
  15   2.0000      -0.435648       -11.8546 
  16   2.0000      -0.429933       -11.6991 
  17   2.0000      -0.422834       -11.5059 
  18   2.0000      -0.304724        -8.2920 
  19   0.0000       0.103992         2.8298 
  20   0.0000       0.104817         2.8522 
  21   0.0000       0.140092         3.8121 
  22   0.0000       0.143068         3.8931 
  23   0.0000       0.147197         4.0054 
  24   0.0000       0.165085         4.4922 
  25   0.0000       0.174994         4.7618 
  26   0.0000       0.191578         5.2131 
  27   0.0000       0.202053         5.4982 
  28   0.0000       0.244683         6.6582 
  29   0.0000       0.247873         6.7450 
*Only the first 10 virtual orbitals were printed.

                    ********************************
                    * MULLIKEN POPULATION ANALYSIS *
                    ********************************

-----------------------
MULLIKEN ATOMIC CHARGES
-----------------------
   0 C :   -0.066695
   1 C :   -0.147200
   2 C :   -0.066724
   3 C :   -0.164708
   4 C :   -0.164718
   5 H :    0.063887
   6 H :    0.068134
   7 H :    0.072658
   8 H :    0.068550
   9 H :    0.068130
  10 H :    0.063895
  11 H :    0.102391
  12 H :    0.102398
Sum of atomic charges:   -0.0000000

--------------------------------
MULLIKEN REDUCED ORBITAL CHARGES
--------------------------------
  0 C s       :     3.081931  s :     3.081931
      pz      :     1.020224  p :     2.866302
      px      :     0.963846
      py      :     0.882232
      dz2     :     0.018532  d :     0.112381
      dxz     :     0.030480
      dyz     :     0.017031
      dx2y2   :     0.024610
      dxy     :     0.021729
      f0      :     0.000743  f :     0.006081
      f+1     :     0.000769
      f-1     :     0.000540
      f+2     :     0.000460
      f-2     :     0.000816
      f+3     :     0.001429
      f-3     :     0.001323

  1 C s       :     3.133149  s :     3.133149
      pz      :     1.046561  p :     2.904564
      px      :     0.878812
      py      :     0.979190
      dz2     :     0.023197  d :     0.103436
      dxz     :     0.015045
      dyz     :     0.018621
      dx2y2   :     0.026537
      dxy     :     0.020035
      f0      :     0.000909  f :     0.006051
      f+1     :     0.000559
      f-1     :     0.000460
      f+2     :     0.000547
      f-2     :     0.000776
      f+3     :     0.001388
      f-3     :     0.001414

  2 C s       :     3.081944  s :     3.081944
      pz      :     1.020029  p :     2.866324
      px      :     0.964090
      py      :     0.882204
      dz2     :     0.018712  d :     0.112375
      dxz     :     0.030263
      dyz     :     0.017025
      dx2y2   :     0.024668
      dxy     :     0.021707
      f0      :     0.000748  f :     0.006080
      f+1     :     0.000762
      f-1     :     0.000542
      f+2     :     0.000462
      f-2     :     0.000817
      f+3     :     0.001428
      f-3     :     0.001321

  3 C s       :     3.168872  s :     3.168872
      pz      :     0.961092  p :     2.879428
      px      :     0.963845
      py      :     0.954491
      dz2     :     0.003867  d :     0.108570
      dxz     :     0.023209
      dyz     :     0.007525
      dx2y2   :     0.029827
      dxy     :     0.044142
      f0      :     0.001250  f :     0.007837
      f+1     :     0.000588
      f-1     :     0.000860
      f+2     :     0.001050
      f-2     :     0.000285
      f+3     :     0.001438
      f-3     :     0.002366

  4 C s       :     3.168871  s :     3.168871
      pz      :     0.961177  p :     2.879435
      px      :     0.963866
      py      :     0.954392
      dz2     :     0.003839  d :     0.108574
      dxz     :     0.023225
      dyz     :     0.007533
      dx2y2   :     0.029835
      dxy     :     0.044142
      f0      :     0.001250  f :     0.007837
      f+1     :     0.000588
      f-1     :     0.000859
      f+2     :     0.001051
      f-2     :     0.000284
      f+3     :     0.001440
      f-3     :     0.002365

  5 H s       :     0.894453  s :     0.894453
      pz      :     0.018784  p :     0.039576
      px      :     0.011656
      py      :     0.009136
      dz2     :     0.000588  d :     0.002084
      dxz     :     0.000634
      dyz     :     0.000602
      dx2y2   :     0.000120
      dxy     :     0.000140

  6 H s       :     0.889948  s :     0.889948
      pz      :     0.013006  p :     0.039826
      px      :     0.017272
      py      :     0.009548
      dz2     :     0.000567  d :     0.002091
      dxz     :     0.000403
      dyz     :     0.000269
      dx2y2   :     0.000357
      dxy     :     0.000494

  7 H s       :     0.885881  s :     0.885881
      pz      :     0.011456  p :     0.039395
      px      :     0.009482
      py      :     0.018457
      dz2     :     0.000452  d :     0.002066
      dxz     :     0.000155
      dyz     :     0.000446
      dx2y2   :     0.000337
      dxy     :     0.000675

  8 H s       :     0.890320  s :     0.890320
      pz      :     0.019713  p :     0.039017
      px      :     0.008965
      py      :     0.010338
      dz2     :     0.000538  d :     0.002113
      dxz     :     0.000727
      dyz     :     0.000737
      dx2y2   :     0.000042
      dxy     :     0.000069

  9 H s       :     0.889952  s :     0.889952
      pz      :     0.012945  p :     0.039827
      px      :     0.017339
      py      :     0.009542
      dz2     :     0.000565  d :     0.002091
      dxz     :     0.000403
      dyz     :     0.000266
      dx2y2   :     0.000359
      dxy     :     0.000499

 10 H s       :     0.894445  s :     0.894445
      pz      :     0.018839  p :     0.039576
      px      :     0.011604
      py      :     0.009134
      dz2     :     0.000587  d :     0.002084
      dxz     :     0.000638
      dyz     :     0.000604
      dx2y2   :     0.000117
      dxy     :     0.000138

 11 H s       :     0.858430  s :     0.858430
      pz      :     0.010770  p :     0.037225
      px      :     0.010359
      py      :     0.016096
      dz2     :     0.000134  d :     0.001953
      dxz     :     0.000281
      dyz     :     0.000319
      dx2y2   :     0.000776
      dxy     :     0.000443

 12 H s       :     0.858424  s :     0.858424
      pz      :     0.010772  p :     0.037224
      px      :     0.010368
      py      :     0.016084
      dz2     :     0.000134  d :     0.001954
      dxz     :     0.000282
      dyz     :     0.000319
      dx2y2   :     0.000777
      dxy     :     0.000442



                     *******************************
                     * LOEWDIN POPULATION ANALYSIS *
                     *******************************

----------------------
LOEWDIN ATOMIC CHARGES
----------------------
   0 C :   -0.019709
   1 C :    0.001255
   2 C :   -0.019693
   3 C :   -0.015715
   4 C :   -0.015724
   5 H :    0.014032
   6 H :    0.010005
   7 H :    0.004871
   8 H :    0.013830
   9 H :    0.010005
  10 H :    0.014020
  11 H :    0.001410
  12 H :    0.001412

-------------------------------
LOEWDIN REDUCED ORBITAL CHARGES
-------------------------------
  0 C s       :     2.690848  s :     2.690848
      pz      :     0.999274  p :     2.880198
      px      :     0.948126
      py      :     0.932798
      dz2     :     0.066661  d :     0.406303
      dxz     :     0.097472
      dyz     :     0.055536
      dx2y2   :     0.096657
      dxy     :     0.089977
      f0      :     0.004571  f :     0.042360
      f+1     :     0.004418
      f-1     :     0.004855
      f+2     :     0.004740
      f-2     :     0.005764
      f+3     :     0.009163
      f-3     :     0.008848

  1 C s       :     2.694339  s :     2.694339
      pz      :     1.001558  p :     2.869336
      px      :     0.915109
      py      :     0.952669
      dz2     :     0.086758  d :     0.393796
      dxz     :     0.053324
      dyz     :     0.064213
      dx2y2   :     0.100509
      dxy     :     0.088991
      f0      :     0.005798  f :     0.041274
      f+1     :     0.004664
      f-1     :     0.002608
      f+2     :     0.005499
      f-2     :     0.006006
      f+3     :     0.009448
      f-3     :     0.007250

  2 C s       :     2.690854  s :     2.690854
      pz      :     0.999169  p :     2.880198
      px      :     0.948266
      py      :     0.932763
      dz2     :     0.067261  d :     0.406283
      dxz     :     0.096725
      dyz     :     0.055576
      dx2y2   :     0.096820
      dxy     :     0.089901
      f0      :     0.004601  f :     0.042357
      f+1     :     0.004373
      f-1     :     0.004859
      f+2     :     0.004764
      f-2     :     0.005779
      f+3     :     0.009139
      f-3     :     0.008842

  3 C s       :     2.736000  s :     2.736000
      pz      :     0.846015  p :     2.842908
      px      :     1.041355
      py      :     0.955538
      dz2     :     0.026958  d :     0.393733
      dxz     :     0.060899
      dyz     :     0.032519
      dx2y2   :     0.111650
      dxy     :     0.161706
      f0      :     0.002351  f :     0.043073
      f+1     :     0.003560
      f-1     :     0.003111
      f+2     :     0.007012
      f-2     :     0.001858
      f+3     :     0.008452
      f-3     :     0.016728

  4 C s       :     2.735995  s :     2.735995
      pz      :     0.846021  p :     2.842914
      px      :     1.041376
      py      :     0.955516
      dz2     :     0.026861  d :     0.393739
      dxz     :     0.060921
      dyz     :     0.032578
      dx2y2   :     0.111624
      dxy     :     0.161755
      f0      :     0.002353  f :     0.043075
      f+1     :     0.003563
      f-1     :     0.003103
      f+2     :     0.007018
      f-2     :     0.001856
      f+3     :     0.008464
      f-3     :     0.016717

  5 H s       :     0.808997  s :     0.808997
      pz      :     0.066416  p :     0.148550
      px      :     0.042272
      py      :     0.039862
      dz2     :     0.009385  d :     0.028421
      dxz     :     0.008659
      dyz     :     0.007334
      dx2y2   :     0.001376
      dxy     :     0.001666

  6 H s       :     0.813489  s :     0.813489
      pz      :     0.052335  p :     0.147926
      px      :     0.056111
      py      :     0.039480
      dz2     :     0.007550  d :     0.028579
      dxz     :     0.007163
      dyz     :     0.003259
      dx2y2   :     0.004941
      dxy     :     0.005665

  7 H s       :     0.817197  s :     0.817197
      pz      :     0.047240  p :     0.149218
      px      :     0.039568
      py      :     0.062409
      dz2     :     0.006320  d :     0.028714
      dxz     :     0.001781
      dyz     :     0.007548
      dx2y2   :     0.005821
      dxy     :     0.007243

  8 H s       :     0.808735  s :     0.808735
      pz      :     0.069915  p :     0.148375
      px      :     0.038630
      py      :     0.039830
      dz2     :     0.009736  d :     0.029060
      dxz     :     0.008625
      dyz     :     0.009672
      dx2y2   :     0.000273
      dxy     :     0.000755

  9 H s       :     0.813486  s :     0.813486
      pz      :     0.052170  p :     0.147929
      px      :     0.056286
      py      :     0.039473
      dz2     :     0.007511  d :     0.028580
      dxz     :     0.007166
      dyz     :     0.003212
      dx2y2   :     0.004977
      dxy     :     0.005713

 10 H s       :     0.809006  s :     0.809006
      pz      :     0.066524  p :     0.148552
      px      :     0.042173
      py      :     0.039856
      dz2     :     0.009392  d :     0.028421
      dxz     :     0.008683
      dyz     :     0.007368
      dx2y2   :     0.001345
      dxy     :     0.001634

 11 H s       :     0.820009  s :     0.820009
      pz      :     0.041387  p :     0.151215
      px      :     0.045736
      py      :     0.064093
      dz2     :     0.002518  d :     0.027366
      dxz     :     0.003088
      dyz     :     0.004906
      dx2y2   :     0.008940
      dxy     :     0.007913

 12 H s       :     0.820006  s :     0.820006
      pz      :     0.041396  p :     0.151216
      px      :     0.045775
      py      :     0.064045
      dz2     :     0.002519  d :     0.027366
      dxz     :     0.003100
      dyz     :     0.004896
      dx2y2   :     0.008939
      dxy     :     0.007912



                      *****************************
                      * MAYER POPULATION ANALYSIS *
                      *****************************

  NA   - Mulliken gross atomic population
  ZA   - Total nuclear charge
  QA   - Mulliken gross atomic charge
  VA   - Mayer's total valence
  BVA  - Mayer's bonded valence
  FA   - Mayer's free valence

  ATOM       NA         ZA         QA         VA         BVA        FA
  0 C      6.0667     6.0000    -0.0667     3.9013     3.9013    -0.0000
  1 C      6.1472     6.0000    -0.1472     3.9675     3.9675    -0.0000
  2 C      6.0667     6.0000    -0.0667     3.9013     3.9013    -0.0000
  3 C      6.1647     6.0000    -0.1647     3.9173     3.9173    -0.0000
  4 C      6.1647     6.0000    -0.1647     3.9174     3.9174    -0.0000
  5 H      0.9361     1.0000     0.0639     1.0089     1.0089    -0.0000
  6 H      0.9319     1.0000     0.0681     1.0086     1.0086    -0.0000
  7 H      0.9273     1.0000     0.0727     1.0129     1.0129    -0.0000
  8 H      0.9314     1.0000     0.0686     1.0128     1.0128    -0.0000
  9 H      0.9319     1.0000     0.0681     1.0086     1.0086     0.0000
 10 H      0.9361     1.0000     0.0639     1.0089     1.0089    -0.0000
 11 H      0.8976     1.0000     0.1024     1.0088     1.0088    -0.0000
 12 H      0.8976     1.0000     0.1024     1.0088     1.0088     0.0000

  Mayer bond orders larger than 0.100000
B(  0-C ,  1-C ) :   0.9559 B(  0-C ,  4-C ) :   0.9729 B(  0-C ,  5-H ) :   0.9895 
B(  0-C ,  6-H ) :   1.0073 B(  1-C ,  2-C ) :   0.9559 B(  1-C ,  7-H ) :   1.0094 
B(  1-C ,  8-H ) :   1.0077 B(  2-C ,  3-C ) :   0.9729 B(  2-C ,  9-H ) :   1.0073 
B(  2-C , 10-H ) :   0.9895 B(  3-C ,  4-C ) :   1.9398 B(  3-C , 11-H ) :   0.9806 
B(  4-C , 12-H ) :   0.9806 

-------
TIMINGS
-------

Total SCF time: 0 days 0 hours 0 min 40 sec 

Total time                  ....      40.544 sec
Sum of individual times     ....      38.069 sec  ( 93.9%)

SCF preparation             ....       2.012 sec  (  5.0%)
Fock matrix formation       ....      35.226 sec  ( 86.9%)
  Startup                   ....       0.020 sec  (  0.1% of F)
  Split-RI-J                ....       1.239 sec  (  3.5% of F)
  Chain of spheres X        ....      29.817 sec  ( 84.6% of F)
  XC integration            ....       6.206 sec  ( 17.6% of F)
    XC Preparation          ....       0.000 sec  (  0.0% of XC)
    Basis function eval.    ....       1.686 sec  ( 27.2% of XC)
    Density eval.           ....       1.606 sec  ( 25.9% of XC)
    XC-Functional eval.     ....       0.185 sec  (  3.0% of XC)
    XC-Potential eval.      ....       1.763 sec  ( 28.4% of XC)
Diagonalization             ....       0.000 sec  (  0.0%)
Density matrix formation    ....       0.100 sec  (  0.2%)
Total Energy calculation    ....       0.040 sec  (  0.1%)
Population analysis         ....       0.042 sec  (  0.1%)
Orbital Transformation      ....       0.088 sec  (  0.2%)
Orbital Orthonormalization  ....       0.000 sec  (  0.0%)
DIIS solution               ....       0.365 sec  (  0.9%)
SOSCF solution              ....       0.192 sec  (  0.5%)
Finished LeanSCF after  40.6 sec

Maximum memory used throughout the entire LEANSCF-calculation: 22.2 MB


           ************************************************************
           *        Program running with 8 parallel MPI-processes     *
           *              working on a common directory               *
           ************************************************************

------------------------------------------------------------------------------
                                ORCA  MP2 
------------------------------------------------------------------------------

Freezing NCore=10 chemical core electrons

----------------------
RI-MP2 ENERGY+GRADIENT
----------------------
Dimension of the orbital basis            ...  267
Dimension of the AuxC basis               ...  620
Memory devoted to MP2                     ... 6000 MB   
Data format for matrix containers         ... DOUBLE
Compression type for matrix containers    ... UNCOMPRESSED
Scaling for aa/bb pairs                   ...   5.660e-02
Scaling for ab pairs                      ...   5.935e-01
Overall scaling of the MP2 energy         ...   1.000e+00

-----------------------
SHARK RI TRANSFORMATION
-----------------------

Number of basis functions                ...    267
Number of aux functions                  ...    620
Number of operators                      ...      1
Generation of IJK                        ... YES
Generation of IAK                        ... YES
Generation of ABK                        ... NO
Orbital Range Operator  0:    0-  18 to   19- 266

Aux basis identifier                     ...   AUXC
Contraction scheme used                  ... SEGMENTED
Do orthogonalization                     ... YES
All operator combinations                ... NO
Transpose (ia|K)                         ... NO
Integral generator used                  ... LIBINT
Starting integral generation + trafo... 
Half trafo (segmented) done. Total time =  0.2 sec. integrals=  0.1 sec trafo=  0.1 sec
Integral generation and half transformation done (  0.2 sec)

Reading or making V^(-1/2)          ... done (  0.0 sec)
Sorting IJK integrals               ... done (  0.0 sec)
Sorting IAK integrals               ... done (  0.1 sec)

SHARK RI integral transformation done. Total time =  0.3 sec.

Opening buffers                              ... done
Frozen core precalculation                   ... done

Starting loop over batches of integrals:

Operator 0  - window                       ... (  5- 18)x( 19-266)
Operator 0  - Memory available             ...  6000 MB
Operator 0  - Memory needed per MO         ...   1.2 MB
Operator 0  - Number of orbitals per batch ... 2
Operator 0  - Number of batches            ... 1

OPERATOR  0   PASS   0:  MOs     5 ...    6 +    7 ...    8 +    9 ...   10 +   11 ...   12
                            +   13 ...   14 +   15 ...   16 +   17 ...   18
  Reading integrals       ... ok
Closing buffer GIPV ( 0.02 GB; CompressionRatio= 1.00)
Time spent in pair loops =     0.696 sec
Deleting buffers (Ka|jb) ...done

-----------------------------------------------
 RI-MP2 CORRELATION ENERGY:     -0.439554540 Eh
-----------------------------------------------


---------------------
MP2 DENSITY FORMATION
---------------------

Completing the external part of the density      ... done
Storing the unrelaxed density                    ... done

Re-sorting 3-index density container for op 0    ... done
Computing external part of the Lagrangian        ... done
Calculating the xc-kernel                        ... done
Calculating G(D)                                 ... done
Completing the Lagrangian                        ... done
Solving the Z-vector equations                   ... Using XC Grid                  ... (opt.grid_cpscf.tmp) 
Recalculating density on grid  ... (opt.grho_cpscf0.tmp) done
Calculating the xc-kernel      ... (opt.fxc_cpscf0.tmp) done

-------------------
SHARK CP-SCF DRIVER
-------------------

Dimension of the orbital basis          ...    267
Dimension of the CPSCF-problem          ...   4712
Number of operators                     ...      1
Max. number of iterations               ...    128
Convergence Tolerance                   ... 3.0e-05
Number of perturbations                 ...      1
Perturbation type                       ... REAL

----------------------------
POPLE LINEAR EQUATION SOLVER
----------------------------

  ITERATION   0:   ||err||_max =   4.6004e-02 (   1.1 sec)
  ITERATION   1:   ||err||_max =   9.6607e-03 (   1.1 sec)
  ITERATION   2:   ||err||_max =   2.3496e-03 (   1.1 sec)
  ITERATION   3:   ||err||_max =   4.6894e-04 (   1.1 sec)
  ITERATION   4:   ||err||_max =   1.5565e-04 (   1.2 sec)
  ITERATION   5:   ||err||_max =   2.0208e-05 (   1.2 sec)
done
Finalizing the relaxed density                   ... done
Transforming P to the AO basis                   ... done
Storing the relaxed density                      ... done

------------------------------------
ENERGY WEIGHTED DENSITY FINALIZATION
------------------------------------

Gathering the parts of the W-matrix              ... done
Forming the Z-density                            ... done
Transforming Z to the AO basis                   ... done
Calculating G(Z)                                 ... done
Finalizing the W-matrix                          ... done
Transforming W to the AO basis and storing       ... done

----------------------------------
MP2 DERIVATIVE INTEGRAL GENERATION
----------------------------------

Input SCF Electron Density              ... opt.scfp
Input Correlated Electron Density       ... opt.pmp2re
Input Energy Weighted Density           ... opt.wmp2.tmp

Nuclear repulsion gradient              ... done (  0.0 sec)
HCore & Overlap gradient  (SHARK)       ... done (  0.1 sec)
Two-electron RIJ gradient terms         ... done (  0.9 sec)

-----------------------------------------------------------
MP2 COSX Grid Generation
-----------------------------------------------------------

General Integration Accuracy     IntAcc      ... 4.871
Radial Grid Type                 RadialGrid  ... OptM3 with GC (2021)
Angular Grid (max. ang.)         AngularGrid ... 4 (Lebedev-302)
Angular grid pruning method      GridPruning ... 4 (adaptive)
Weight generation scheme         WeightScheme... mBecke (2022)
Basis function cutoff            BFCut       ... 1.0000e-12
Integration weight cutoff        WCut        ... 1.0000e-14
Partially contracted basis set               ... on
Rotationally invariant grid construction     ... off
Angular grids for H and He will be reduced by one unit

Total number of grid points                  ...    65424
Total number of batches                      ...      518
Average number of points per batch           ...      126
Average number of grid points per atom       ...     5033
UseSFitting                                  ... on
Two-electron COSX gradient terms        ... 
Integration Timings:
Total Time                  =     9.2 sec
Basis fcn evaluation        =     0.1 sec
Density evaluation          =     0.2 sec
A evaluation                =     8.3 sec
A derivative evaluation     =     0.0 sec
S-fit derivative evaluation =     0.0 sec
anal. over. der. evaluation =     0.0 sec
num. over. der. evaluation  =     0.2 sec
K(P) evaluation             =     0.1 sec
finalize                    =     0.0 sec

done ( 10.0 sec)
DFT XC gradient                         ... done (  2.4 sec)
Empirical dispersion gradient           ... done (  0.1 sec)

                *********************************************
                * UNRELAXED MP2 DENSITY POPULATION ANALYSIS *
                *********************************************

------------------------------------------------------------------------------
                           ORCA POPULATION ANALYSIS
------------------------------------------------------------------------------
Input electron density              ... opt.pmp2ur
BaseName (.gbw .S,...)              ... opt

                    ********************************
                    * MULLIKEN POPULATION ANALYSIS *
                    ********************************

-----------------------
MULLIKEN ATOMIC CHARGES
-----------------------
   0 C :   -0.068422
   1 C :   -0.149190
   2 C :   -0.068451
   3 C :   -0.165620
   4 C :   -0.165630
   5 H :    0.064742
   6 H :    0.069007
   7 H :    0.073556
   8 H :    0.069408
   9 H :    0.069003
  10 H :    0.064751
  11 H :    0.103420
  12 H :    0.103427
Sum of atomic charges:   -0.0000000

--------------------------------
MULLIKEN REDUCED ORBITAL CHARGES
--------------------------------
  0 C s       :     3.080706  s :     3.080706
      pz      :     1.016671  p :     2.856014
      px      :     0.959958
      py      :     0.879385
      dz2     :     0.020638  d :     0.123576
      dxz     :     0.032926
      dyz     :     0.019762
      dx2y2   :     0.026781
      dxy     :     0.023469
      f0      :     0.001041  f :     0.008126
      f+1     :     0.001042
      f-1     :     0.000809
      f+2     :     0.000772
      f-2     :     0.001125
      f+3     :     0.001724
      f-3     :     0.001614
  1 C s       :     3.131995  s :     3.131995
      pz      :     1.042881  p :     2.894438
      px      :     0.876012
      py      :     0.975545
      dz2     :     0.025195  d :     0.114707
      dxz     :     0.017696
      dyz     :     0.021261
      dx2y2   :     0.029081
      dxy     :     0.021474
      f0      :     0.001162  f :     0.008050
      f+1     :     0.000848
      f-1     :     0.000763
      f+2     :     0.000815
      f-2     :     0.001077
      f+3     :     0.001725
      f-3     :     0.001660
  2 C s       :     3.080719  s :     3.080719
      pz      :     1.016477  p :     2.856036
      px      :     0.960200
      py      :     0.879358
      dz2     :     0.020818  d :     0.123570
      dxz     :     0.032710
      dyz     :     0.019753
      dx2y2   :     0.026843
      dxy     :     0.023447
      f0      :     0.001044  f :     0.008125
      f+1     :     0.001037
      f-1     :     0.000811
      f+2     :     0.000773
      f-2     :     0.001126
      f+3     :     0.001722
      f-3     :     0.001612
  3 C s       :     3.167578  s :     3.167578
      pz      :     0.957771  p :     2.868630
      px      :     0.960109
      py      :     0.950750
      dz2     :     0.006379  d :     0.119577
      dxz     :     0.025212
      dyz     :     0.010279
      dx2y2   :     0.031190
      dxy     :     0.046516
      f0      :     0.001466  f :     0.009835
      f+1     :     0.000819
      f-1     :     0.001052
      f+2     :     0.001332
      f-2     :     0.000610
      f+3     :     0.001734
      f-3     :     0.002822
  4 C s       :     3.167577  s :     3.167577
      pz      :     0.957854  p :     2.868637
      px      :     0.960133
      py      :     0.950650
      dz2     :     0.006352  d :     0.119580
      dxz     :     0.025228
      dyz     :     0.010287
      dx2y2   :     0.031194
      dxy     :     0.046518
      f0      :     0.001466  f :     0.009835
      f+1     :     0.000819
      f-1     :     0.001051
      f+2     :     0.001333
      f-2     :     0.000609
      f+3     :     0.001737
      f-3     :     0.002820
  5 H s       :     0.891037  s :     0.891037
      pz      :     0.019178  p :     0.041779
      px      :     0.012479
      py      :     0.010122
      dz2     :     0.000670  d :     0.002442
      dxz     :     0.000708
      dyz     :     0.000690
      dx2y2   :     0.000179
      dxy     :     0.000195
  6 H s       :     0.886424  s :     0.886424
      pz      :     0.013691  p :     0.042116
      px      :     0.017868
      py      :     0.010557
      dz2     :     0.000639  d :     0.002453
      dxz     :     0.000476
      dyz     :     0.000346
      dx2y2   :     0.000428
      dxy     :     0.000564
  7 H s       :     0.882301  s :     0.882301
      pz      :     0.012251  p :     0.041712
      px      :     0.010501
      py      :     0.018960
      dz2     :     0.000518  d :     0.002431
      dxz     :     0.000227
      dyz     :     0.000526
      dx2y2   :     0.000414
      dxy     :     0.000747
  8 H s       :     0.886953  s :     0.886953
      pz      :     0.020003  p :     0.041169
      px      :     0.009938
      py      :     0.011228
      dz2     :     0.000619  d :     0.002470
      dxz     :     0.000814
      dyz     :     0.000817
      dx2y2   :     0.000098
      dxy     :     0.000122
  9 H s       :     0.886428  s :     0.886428
      pz      :     0.013633  p :     0.042117
      px      :     0.017932
      py      :     0.010552
      dz2     :     0.000636  d :     0.002453
      dxz     :     0.000476
      dyz     :     0.000342
      dx2y2   :     0.000430
      dxy     :     0.000568
 10 H s       :     0.891028  s :     0.891028
      pz      :     0.019230  p :     0.041779
      px      :     0.012430
      py      :     0.010119
      dz2     :     0.000669  d :     0.002442
      dxz     :     0.000711
      dyz     :     0.000693
      dx2y2   :     0.000176
      dxy     :     0.000193
 11 H s       :     0.854053  s :     0.854053
      pz      :     0.011774  p :     0.040162
      px      :     0.011348
      py      :     0.017040
      dz2     :     0.000199  d :     0.002365
      dxz     :     0.000349
      dyz     :     0.000425
      dx2y2   :     0.000870
      dxy     :     0.000522
 12 H s       :     0.854047  s :     0.854047
      pz      :     0.011775  p :     0.040161
      px      :     0.011357
      py      :     0.017029
      dz2     :     0.000199  d :     0.002365
      dxz     :     0.000350
      dyz     :     0.000424
      dx2y2   :     0.000871
      dxy     :     0.000521


                     *******************************
                     * LOEWDIN POPULATION ANALYSIS *
                     *******************************

----------------------
LOEWDIN ATOMIC CHARGES
----------------------
   0 C :   -0.017822
   1 C :    0.002815
   2 C :   -0.017807
   3 C :   -0.014890
   4 C :   -0.014899
   5 H :    0.013191
   6 H :    0.009166
   7 H :    0.004026
   8 H :    0.012941
   9 H :    0.009167
  10 H :    0.013179
  11 H :    0.000466
  12 H :    0.000468

-------------------------------
LOEWDIN REDUCED ORBITAL CHARGES
-------------------------------
  0 C s       :     2.689366  s :     2.689366
      pz      :     0.993931  p :     2.864861
      px      :     0.943104
      py      :     0.927826
      dz2     :     0.069221  d :     0.418006
      dxz     :     0.099697
      dyz     :     0.057777
      dx2y2   :     0.098851
      dxy     :     0.092460
      f0      :     0.005024  f :     0.045589
      f+1     :     0.004930
      f-1     :     0.005247
      f+2     :     0.005189
      f-2     :     0.006162
      f+3     :     0.009670
      f-3     :     0.009366
  1 C s       :     2.692818  s :     2.692818
      pz      :     0.996351  p :     2.854441
      px      :     0.910383
      py      :     0.947707
      dz2     :     0.089270  d :     0.405532
      dxz     :     0.055489
      dyz     :     0.066668
      dx2y2   :     0.102481
      dxy     :     0.091623
      f0      :     0.006320  f :     0.044395
      f+1     :     0.005039
      f-1     :     0.003049
      f+2     :     0.005874
      f-2     :     0.006399
      f+3     :     0.009859
      f-3     :     0.007854
  2 C s       :     2.689373  s :     2.689373
      pz      :     0.993827  p :     2.864862
      px      :     0.943244
      py      :     0.927791
      dz2     :     0.069817  d :     0.417986
      dxz     :     0.098955
      dyz     :     0.057818
      dx2y2   :     0.099011
      dxy     :     0.092385
      f0      :     0.005056  f :     0.045586
      f+1     :     0.004883
      f-1     :     0.005251
      f+2     :     0.005212
      f-2     :     0.006177
      f+3     :     0.009648
      f-3     :     0.009359
  3 C s       :     2.733981  s :     2.733981
[...]
     21       0.000233   0.000157  -0.004816  -0.000397  -0.000833  -0.000359
     22      -0.044184   0.096030   0.001272  -0.350786   0.000307  -0.351019
     23      -0.046765  -0.056225  -0.000760   0.226919  -0.000184   0.213532
     24      -0.000026   0.000112   0.001647   0.002327  -0.002132   0.000689
     25      -0.029909  -0.012641  -0.000167  -0.158091   0.000054  -0.044318
     26       0.009842  -0.044719  -0.000599  -0.795352   0.000237  -0.235235
     27      -0.070498   0.142545   0.165605  -0.205154   0.504469   0.453727
     28       0.221473  -0.028374  -0.033054   0.046111  -0.106754  -0.094549
     29      -0.078202  -0.141393  -0.162179   0.173252  -0.425174  -0.383041
     30      -0.081589   0.219782   0.221827   0.034585  -0.086217  -0.060300
     31       0.146266  -0.116278  -0.118611  -0.016530   0.042475   0.029196
     32       0.040365   0.611836   0.625624   0.074036  -0.197308  -0.131925
     33      -0.102217  -0.012489  -0.009039   0.000769  -0.013106  -0.016567
     34       0.419815  -0.012771  -0.007250   0.000558  -0.015751  -0.020195
     35      -0.022762  -0.000658  -0.000420   0.001065  -0.000064   0.000119
     36       0.101433   0.013675  -0.008701  -0.001512  -0.013222   0.017058
     37       0.419641  -0.014054   0.006807   0.001517   0.015955  -0.020787
     38      -0.022728  -0.000568   0.000359   0.000922  -0.000022   0.000391
                 36         37         38    
      0       0.004443   0.002048  -0.002985
      1       0.000054   0.001468  -0.002212
      2       0.017227   0.000809  -0.000372
      3      -0.000179  -0.000402   0.000005
      4      -0.048693  -0.000056  -0.001739
      5       0.076034  -0.000006  -0.000487
      6      -0.004534   0.001947   0.002964
      7       0.000049  -0.001446  -0.002197
      8       0.017212  -0.000785  -0.000329
      9       0.000245   0.033506   0.042794
     10       0.000210   0.049200   0.049773
     11       0.000082  -0.000745  -0.000776
     12      -0.000275   0.033314  -0.043046
     13       0.000250  -0.048859   0.049999
     14       0.000080   0.000936  -0.001029
     15       0.047154  -0.000897   0.003933
     16       0.021941  -0.002079   0.003563
     17      -0.114978   0.003905  -0.009865
     18      -0.103584  -0.016943   0.021758
     19      -0.022426  -0.005789   0.007390
     20      -0.087342  -0.014704   0.016540
     21       0.000669   0.000634   0.000001
     22       0.695949   0.000494   0.008410
     23      -0.404612  -0.000303  -0.004296
     24       0.001501   0.000376  -0.000013
     25      -0.120257   0.000062   0.002461
     26      -0.508996   0.000344   0.008779
     27       0.104108  -0.015861  -0.021639
     28      -0.022275   0.005569   0.007331
     29      -0.086775   0.013593   0.016262
     30      -0.046614  -0.000595  -0.003925
     31       0.021900   0.001936   0.003575
     32      -0.115372  -0.003011  -0.010006
     33      -0.000627  -0.403691  -0.404528
     34      -0.000451  -0.579476  -0.572777
     35      -0.000104   0.007757   0.007887
     36       0.000970  -0.402052   0.407603
     37      -0.000879   0.575622  -0.575556
     38      -0.000117  -0.010059   0.010372


-----------
IR SPECTRUM
-----------

 Mode   freq       eps      Int      T**2         TX        TY        TZ
       cm**-1   L/(mol*cm) km/mol    a.u.
----------------------------------------------------------------------------
  6:    163.51   0.000032    0.16  0.000062  ( 0.000032 -0.002870 -0.007318)
  7:    393.58   0.000011    0.05  0.000008  (-0.002873  0.000116 -0.000313)
  8:    602.24   0.001839    9.29  0.000953  ( 0.000118  0.002930 -0.030728)
  9:    718.29   0.007167   36.22  0.003114  (-0.000160 -0.000144  0.055799)
 10:    781.27   0.000051    0.26  0.000020  (-0.004493 -0.000045  0.000023)
 11:    834.49   0.000166    0.84  0.000062  ( 0.000058 -0.001781 -0.007681)
 12:    898.08   0.000416    2.10  0.000145  ( 0.012021 -0.000015  0.000018)
 13:    920.33   0.000097    0.49  0.000033  ( 0.000224 -0.003299 -0.004702)
 14:    927.56   0.001467    7.41  0.000494  (-0.022217 -0.000105 -0.000061)
 15:    973.78   0.000025    0.13  0.000008  ( 0.002825  0.000083 -0.000179)
 16:    984.61   0.000256    1.29  0.000081  ( 0.000005  0.008682  0.002399)
 17:   1049.36   0.000350    1.77  0.000104  (-0.010197 -0.000024  0.000013)
 18:   1077.08   0.001560    7.88  0.000452  ( 0.000044 -0.001165 -0.021225)
 19:   1132.17   0.000026    0.13  0.000007  ( 0.000222 -0.000296 -0.002656)
 20:   1157.39   0.000325    1.64  0.000088  ( 0.009361  0.000012  0.000030)
 21:   1231.34   0.000000    0.00  0.000000  ( 0.000345 -0.000012 -0.000007)
 22:   1244.12   0.000297    1.50  0.000075  (-0.000011  0.004519  0.007356)
 23:   1316.48   0.000319    1.61  0.000076  ( 0.008696 -0.000009  0.000043)
 24:   1332.96   0.000083    0.42  0.000019  (-0.004395 -0.000037  0.000007)
 25:   1338.05   0.000178    0.90  0.000042  (-0.000005 -0.006331  0.001203)
 26:   1390.62   0.000419    2.12  0.000094  (-0.009699 -0.000025 -0.000001)
 27:   1492.19   0.000353    1.78  0.000074  ( 0.000007  0.002595  0.008192)
 28:   1499.10   0.000370    1.87  0.000077  (-0.008778  0.000007  0.000004)
 29:   1517.38   0.000301    1.52  0.000062  (-0.000007  0.007847  0.000495)
 30:   1671.76   0.000465    2.35  0.000087  ( 0.000013 -0.009307  0.000447)
 31:   3029.52   0.005251   26.54  0.000541  ( 0.000451  0.008348 -0.021703)
 32:   3031.57   0.010208   51.59  0.001051  (-0.032413  0.000081 -0.000358)
 33:   3063.46   0.003133   15.83  0.000319  (-0.000022  0.016982  0.005547)
 34:   3085.04   0.005605   28.33  0.000567  (-0.023812 -0.000036 -0.000087)
 35:   3088.97   0.007691   38.87  0.000777  (-0.000096  0.018704  0.020667)
 36:   3120.96   0.008133   41.10  0.000813  (-0.000059 -0.015110  0.024184)
 37:   3193.22   0.001348    6.81  0.000132  ( 0.011476  0.000106 -0.000030)
 38:   3218.31   0.004023   20.33  0.000390  ( 0.000034  0.019751 -0.000013)

* The epsilon (eps) is given for a Dirac delta lineshape.
** The dipole moment derivative (T) already includes vibrational overlap.

The first frequency considered to be a vibration is 6
The total number of vibrations considered is 33


--------------------------
THERMOCHEMISTRY AT 298.15K
--------------------------

Temperature         ...   298.15 K
Pressure            ...     1.00 atm
Total Mass          ...    68.12 AMU
Quasi RRHO          ...     True
Cut-Off Frequency   ...     1.00 cm^-1

Throughout the following assumptions are being made:
  (1) The electronic state is orbitally nondegenerate
  (2) There are no thermally accessible electronically excited states
  (3) Hindered rotations indicated by low frequency modes are not
      treated as such but are treated as vibrations and this may
      cause some error
  (4) All equations used are the standard statistical mechanics
      equations for an ideal gas
  (5) All vibrations are strictly harmonic

freq.     163.51  E(vib)   ...       0.39 
freq.     393.58  E(vib)   ...       0.20 
freq.     602.24  E(vib)   ...       0.10 
freq.     718.29  E(vib)   ...       0.07 
freq.     781.27  E(vib)   ...       0.05 
freq.     834.49  E(vib)   ...       0.04 
freq.     898.08  E(vib)   ...       0.03 
freq.     920.33  E(vib)   ...       0.03 
freq.     927.56  E(vib)   ...       0.03 
freq.     973.78  E(vib)   ...       0.03 
freq.     984.61  E(vib)   ...       0.02 
freq.    1049.36  E(vib)   ...       0.02 
freq.    1077.08  E(vib)   ...       0.02 
freq.    1132.17  E(vib)   ...       0.01 
freq.    1157.39  E(vib)   ...       0.01 
freq.    1231.34  E(vib)   ...       0.01 
freq.    1244.12  E(vib)   ...       0.01 
freq.    1316.48  E(vib)   ...       0.01 
freq.    1332.96  E(vib)   ...       0.01 
freq.    1338.05  E(vib)   ...       0.01 
freq.    1390.62  E(vib)   ...       0.00 
freq.    1492.19  E(vib)   ...       0.00 
freq.    1499.10  E(vib)   ...       0.00 
freq.    1517.38  E(vib)   ...       0.00 
freq.    1671.76  E(vib)   ...       0.00 
freq.    3029.52  E(vib)   ...       0.00 
freq.    3031.57  E(vib)   ...       0.00 
freq.    3063.46  E(vib)   ...       0.00 
freq.    3085.04  E(vib)   ...       0.00 
freq.    3088.97  E(vib)   ...       0.00 
freq.    3120.96  E(vib)   ...       0.00 
freq.    3193.22  E(vib)   ...       0.00 
freq.    3218.31  E(vib)   ...       0.00 

------------
INNER ENERGY
------------

The inner energy is: U= E(el) + E(ZPE) + E(vib) + E(rot) + E(trans)
    E(el)   - is the total energy from the electronic structure calculation
              = E(kin-el) + E(nuc-el) + E(el-el) + E(nuc-nuc)
    E(ZPE)  - the the zero temperature vibrational energy from the frequency calculation
    E(vib)  - the the finite temperature correction to E(ZPE) due to population
              of excited vibrational states
    E(rot)  - is the rotational thermal energy
    E(trans)- is the translational thermal energy

Summary of contributions to the inner energy U:
Electronic energy                ...   -195.00693847 Eh
Zero point energy                ...      0.11727731 Eh      73.59 kcal/mol
Thermal vibrational correction   ...      0.00176897 Eh       1.11 kcal/mol
Thermal rotational correction    ...      0.00141627 Eh       0.89 kcal/mol
Thermal translational correction ...      0.00141627 Eh       0.89 kcal/mol
-----------------------------------------------------------------------
Total thermal energy                   -194.88505965 Eh


Summary of corrections to the electronic energy:
(perhaps to be used in another calculation)
Total thermal correction                  0.00460152 Eh       2.89 kcal/mol
Non-thermal (ZPE) correction              0.11727731 Eh      73.59 kcal/mol
-----------------------------------------------------------------------
Total correction                          0.12187882 Eh      76.48 kcal/mol


--------
ENTHALPY
--------

The enthalpy is H = U + kB*T
                kB is Boltzmann's constant
Total thermal energy              ...   -194.88505965 Eh 
Thermal Enthalpy correction       ...      0.00094421 Eh       0.59 kcal/mol
-----------------------------------------------------------------------
Total Enthalpy                    ...   -194.88411544 Eh


Note: Only C1 symmetry has been detected, increase convergence thresholds 
      if your molecule has a higher symmetry. Symmetry factor of 1.0 is   
      used for the rotational entropy correction. 
 

Note: Rotational entropy computed according to Herzberg 
Infrared and Raman Spectra, Chapter V,1, Van Nostrand Reinhold, 1945 
Point Group:  C1, Symmetry Number:   1  
Rotational constants in cm-1:     0.244526     0.242061     0.132332 

Vibrational entropy computed according to the QRRHO of S. Grimme
Chem.Eur.J. 2012 18 9955 using a reference frequency of 100.0 cm-1


-------
ENTROPY
-------

The entropy contributions are T*S = T*(S(el)+S(vib)+S(rot)+S(trans))
     S(el)   - electronic entropy
     S(vib)  - vibrational entropy
     S(rot)  - rotational entropy
     S(trans)- translational entropy
The entropies will be listed as multiplied by the temperature to get
units of energy

Electronic entropy                ...      0.00000000 Eh      0.00 kcal/mol
Vibrational entropy               ...      0.00269229 Eh      1.69 kcal/mol
Rotational entropy                ...      0.01180018 Eh      7.40 kcal/mol
Translational entropy             ...      0.01832752 Eh     11.50 kcal/mol
-----------------------------------------------------------------------
Final entropy term                ...      0.03281999 Eh     20.59 kcal/mol

In case the symmetry of your molecule has not been determined correctly
or in case you have a reason to use a different symmetry number we print 
out the resulting rotational entropy values for sn=1,12:

 non-linear molecules -----------------------------------
|  sn= 1 | S(rot)=       0.01180018 Eh      7.40 kcal/mol|
|  sn= 2 | S(rot)=       0.01114573 Eh      6.99 kcal/mol|
|  sn= 3 | S(rot)=       0.01076289 Eh      6.75 kcal/mol|
|  sn= 4 | S(rot)=       0.01049127 Eh      6.58 kcal/mol|
|  sn= 5 | S(rot)=       0.01028058 Eh      6.45 kcal/mol|
|  sn= 6 | S(rot)=       0.01010844 Eh      6.34 kcal/mol|
|  sn= 7 | S(rot)=       0.00996289 Eh      6.25 kcal/mol|
|  sn= 8 | S(rot)=       0.00983681 Eh      6.17 kcal/mol|
|  sn= 9 | S(rot)=       0.00972561 Eh      6.10 kcal/mol|
|  sn=10 | S(rot)=       0.00962613 Eh      6.04 kcal/mol|
|  sn=11 | S(rot)=       0.00953614 Eh      5.98 kcal/mol|
|  sn=12 | S(rot)=       0.00945398 Eh      5.93 kcal/mol|
 linear molecules ---------------------------------------
|  Dinfh | S(rot)=       0.00723535 Eh      4.54 kcal/mol|
|  Cinfv | S(rot)=       0.00788981 Eh      4.95 kcal/mol|
 --------------------------------------------------------


-------------------
GIBBS FREE ENERGY
-------------------

The Gibbs free energy is G = H - T*S

Total enthalpy                    ...   -194.88411544 Eh 
Total entropy correction          ...     -0.03281999 Eh    -20.59 kcal/mol
-----------------------------------------------------------------------
Final Gibbs free energy         ...   -194.91693543 Eh

For completeness - the Gibbs free energy minus the electronic energy
G-E(el)                           ...      0.09000304 Eh     56.48 kcal/mol



--------------------------------
SUGGESTED CITATIONS FOR THIS RUN
--------------------------------

Below you find a list of papers that are relevant to this ORCA run
We neither can nor want to force you to cite these papers, but we appreciate if you do
You receive ORCA, which is the product of decades of hard work by many enthusiastic individuals, for free
The only thing we kindly ask in return is that you cite our papers,
We deeply appreciate it, if you show your appreciation for ORCA by not just citing the generic ORCA reference.

Please note that relegating all ORCA citations to the supporting information does *not* help us.
SI sections are not indexed - citations you put there will not count into any citation statistics
But we need these citations in order to attract the funding resources that allow us to do what we are doing

Therefore, if you are a happy ORCA user, please consider citing a few of the papers listed below in the main body of your paper

In addition to the list printed below, the program has created the file opt.bibtex that contains the list in bibtex format
You can import this file easily into all common literature databanks and citation aid programs

It goes without saying that in many instances, there are alternative algorithms to achieve similar
results as the ones you have gotten from ORCA. It is, of course, also the case that in some instances
ORCA just re-implements algorithms worked out by others. We are fully aware of that and we are also
fully appreciative of our colleagues work. Hence this citation list should not be read as indicating
that the listed papers, which are focused on our own work, are the only ones worth citing. It simply
meant to make it easier for users to cite ORCA specific papers. It is not a substitute for doing your
own literature research and citing the relevant literature in a scientifically appropriate manner.

List of essential papers. We consider these as the minimum necessary citations

  1. Neese, F.
     Software update: the ORCA program system, version 6.0
     WIRES Comput. Molec. Sci. 2025 15(1), e70019
     doi.org/10.1002/wcms.70019

List of papers to cite with high priority. The work reported in these papers was absolutely
necessary for this run to complete.
Our perspective: the developers of density functionals and basis sets usually get cited in chemistry papers
Good! But without the algorithms to do something with them, the functionals or basis sets would not do anything.
Hence, in our opinion, the algorithm design and method developments papers are equally worthy of getting cited

  1. Neese, F.
     An improvement of the resolution of the identity approximation for the formation of the Coulomb matrix
     J. Comp. Chem. 2003 24(14), 1740-1747
     doi.org/10.1002/jcc.10318
  2. Neese, F.; Schwabe, T.; Grimme, S.
     Analytic derivatives for perturbatively corrected 'double hybrid' density functionals: Theory, implementation, and applications
     J. Chem. Phys. 2007 126(12), Art. No. 124115
     doi.org/10.1063/1.2712433
  3. Neese, F.; Wennmohs, F.; Hansen, A.; Becker, U.
     Efficient, approximate and parallel Hartree-Fock and hybrid DFT calculations. A 'chain-of-spheres' algorithm for the Hartree-Fock exchange
     Chem. Phys. 2009 356(1-3), 98-109
     doi.org/10.1016/j.chemphys.2008.10.036
  4. Kossmann, S.; Neese, F.
     Efficient Structure Optimization with Second-Order Many-Body Perturbation Theory: The RIJCOSX-MP2 Method
     J. Theo. Comp. Chem. 2010 6 , 2325-2338
     doi.org/10.1021/ct100199k
  5. Caldeweyher, E.; Bannwarth, C.; Grimme, S.
     Extension of the D3 dispersion coefficient model
     J. Chem. Phys. 2017 147 , 034112
     doi.org/10.1063/1.4993215
  6. Caldeweyher, E.; Ehlert, S.; Hansen, A.; Neugebauer, H.; Spicher, S.; Bannwarth, C.; Grimme, S.
     A generally applicable atomic-charge dependent London dispersion correction
     J. Chem. Phys. 2019 150 , 154122
     doi.org/10.1063/1.5090222
  7. Helmich-Paris, B.; de Souza, B.; Neese, F.; Izsák, R.
     An improved chain of spheres for exchange algorithm
     J. Chem. Phys. 2021 155(10), 104109
     doi.org/10.1063/5.0058766
  8. Neese, F.
     The SHARK Integral Generation and Digestion System
     J. Comp. Chem. 2022 44(3), 381
     doi.org/10.1002/jcc.26942

List of suggested additional citations. These are papers that are important in the 'surrounding' of 
of this run, or papers that preceded the highly important papers. If you like your results we are grateful for a citation.

  1. Izsak, R.; Neese, F.
     An overlap fitted chain of spheres exchange method
     J. Chem. Phys. 2011 135 , 144105
     doi.org/10.1063/1.3646921
  2. Izsak, R.; Hansen, A.; Neese, F.
     The resolution of identity and chain of spheres approximations for the LPNO-CCSD singles Fock term
     Molec. Phys. 2012 110 , 2413-2417
     doi.org/10.1080/00268976.2012.687466
  3. Neese, F.
     The ORCA program system
     WIRES Comput. Molec. Sci. 2012 2(1), 73-78
     doi.org/10.1002/wcms.81
  4. Izsak, R.; Neese, F.; Klopper, W.
     Robust fitting techniques in the chain of spheres approximation to the Fock exchange: The role of the complementary space
     J. Chem. Phys. 2013 139 , 
     doi.org/10.1063/1.4819264
  5. Neese, F.
     Software update: the ORCA program system, version 4.0
     WIRES Comput. Molec. Sci. 2018 8(1), 1-6
     doi.org/10.1002/wcms.1327
  6. Neese, F.; Wennmohs, F.; Becker, U.; Riplinger, C.
     The ORCA quantum chemistry program package
     J. Chem. Phys. 2020 152(22), 224108
     doi.org/10.1063/5.0004608
  7. Neese, F.
     Software update: The ORCA program system—Version 5.0
     WIRES Comput. Molec. Sci. 2022 12(1), e1606
     doi.org/10.1002/wcms.1606

List of optional additional citations

  1. Neese, F.
     Approximate second-order SCF convergence for spin unrestricted wavefunctions
     Chem. Phys. Lett. 2000 325(1-3), 93-98
     doi.org/10.1016/s0009-2614(00)00662-x

Timings for individual modules:

Sum of individual times          ...     3996.451 sec (=  66.608 min)
Startup calculation              ...       17.047 sec (=   0.284 min)   0.4 %
SCF iterations                   ...       90.040 sec (=   1.501 min)   2.3 %
Property calculations            ...        2.498 sec (=   0.042 min)   0.1 %
MP2 module                       ...      100.316 sec (=   1.672 min)   2.5 %
Geometry relaxation              ...        0.014 sec (=   0.000 min)   0.0 %
Numerical frequency calculation  ...     3786.536 sec (=  63.109 min)  94.7 %
                             ****ORCA TERMINATED NORMALLY****
TOTAL RUN TIME: 0 days 1 hours 5 minutes 42 seconds 892 msec
