15
* (null), Energy   -1000.0000000
C     0.157128   -1.144919   -0.082326   -0.035150   -0.006690   -0.002885
C    -0.520168   -0.007648   -0.104496    0.077478   -0.019765    0.004730
H    -0.267487   -2.136792   -0.162670   -0.007733   -0.014250    0.027013
C     0.313787    1.223577    0.110796   -0.018274    0.022891    0.004961
H    -1.741160    0.053882   -0.237917   -1.979462   -0.046425    0.208706
C     1.738307    0.657019   -0.115719   -0.002798   -0.001323   -0.002470
H     0.068690    2.033247   -0.577494   -0.005315    0.007620   -0.004161
H     0.176888    1.605340    1.127553   -0.021629   -0.000928    0.004169
C     1.631639   -0.868557    0.121646   -0.001767    0.003094   -0.004755
H     2.024524    0.835341   -1.153742   -0.013979    0.006755    0.000229
H     2.483198    1.132552    0.522739   -0.022466    0.011670    0.010856
H     2.267395   -1.438913   -0.558571   -0.013820    0.000622   -0.009728
H     1.923609   -1.143316    1.141327   -0.032206   -0.003744   -0.000925
O    -2.980575    0.032115   -0.064003    0.121600   -0.000077   -0.013255
H    -3.003713   -0.327275    0.834054   -0.065656    0.061261   -0.020779
15
* Frequency(6) -1666.7626
C     0.153134   -1.145679   -0.082654   -0.035150   -0.006690   -0.002885
C    -0.511363   -0.009894   -0.103958    0.077478   -0.019765    0.004730
H    -0.268365   -2.138411   -0.159600   -0.007733   -0.014250    0.027013
C     0.311710    1.226179    0.111360   -0.018274    0.022891    0.004961
H    -1.966115    0.048606   -0.214198   -1.979462   -0.046425    0.208706
C     1.737989    0.656869   -0.116000   -0.002798   -0.001323   -0.002470
H     0.068086    2.034113   -0.577967   -0.005315    0.007620   -0.004161
H     0.174430    1.605235    1.128026   -0.021629   -0.000928    0.004169
C     1.631439   -0.868206    0.121106   -0.001767    0.003094   -0.004755
H     2.022936    0.836109   -1.153716   -0.013979    0.006755    0.000229
H     2.480645    1.133878    0.523972   -0.022466    0.011670    0.010856
H     2.265825   -1.438842   -0.559676   -0.013820    0.000622   -0.009728
H     1.919949   -1.143741    1.141222   -0.032206   -0.003744   -0.000925
O    -2.966756    0.032106   -0.065509    0.121600   -0.000077   -0.013255
H    -3.011175   -0.320313    0.831693   -0.065656    0.061261   -0.020779
15
* Frequency(6) -1666.7626
C     0.149572   -1.146357   -0.082946   -0.035150   -0.006690   -0.002885
C    -0.503512   -0.011897   -0.103479    0.077478   -0.019765    0.004730
H    -0.269149   -2.139855   -0.156863   -0.007733   -0.014250    0.027013
C     0.309858    1.228498    0.111862   -0.018274    0.022891    0.004961
H    -2.166693    0.043901   -0.193050   -1.979462   -0.046425    0.208706
C     1.737705    0.656735   -0.116250   -0.002798   -0.001323   -0.002470
H     0.067548    2.034885   -0.578389   -0.005315    0.007620   -0.004161
H     0.172238    1.605141    1.128449   -0.021629   -0.000928    0.004169
C     1.631260   -0.867892    0.120624   -0.001767    0.003094   -0.004755
H     2.021519    0.836793   -1.153692   -0.013979    0.006755    0.000229
H     2.478368    1.135061    0.525072   -0.022466    0.011670    0.010856
H     2.264424   -1.438779   -0.560662   -0.013820    0.000622   -0.009728
H     1.916686   -1.144121    1.141128   -0.032206   -0.003744   -0.000925
O    -2.954434    0.032099   -0.066852    0.121600   -0.000077   -0.013255
H    -3.017828   -0.314105    0.829587   -0.065656    0.061261   -0.020779
15
* Frequency(6) -1666.7626
C     0.146829   -1.146879   -0.083172   -0.035150   -0.006690   -0.002885
C    -0.497466   -0.013439   -0.103110    0.077478   -0.019765    0.004730
H    -0.269752   -2.140967   -0.154755   -0.007733   -0.014250    0.027013
C     0.308432    1.230285    0.112250   -0.018274    0.022891    0.004961
H    -2.321158    0.040279   -0.176764   -1.979462   -0.046425    0.208706
C     1.737487    0.656631   -0.116443   -0.002798   -0.001323   -0.002470
H     0.067133    2.035480   -0.578713   -0.005315    0.007620   -0.004161
H     0.170551    1.605069    1.128774   -0.021629   -0.000928    0.004169
C     1.631122   -0.867651    0.120253   -0.001767    0.003094   -0.004755
H     2.020428    0.837320   -1.153674   -0.013979    0.006755    0.000229
H     2.476615    1.135971    0.525920   -0.022466    0.011670    0.010856
H     2.263346   -1.438731   -0.561421   -0.013820    0.000622   -0.009728
H     1.914172   -1.144413    1.141056   -0.032206   -0.003744   -0.000925
O    -2.944945    0.032093   -0.067886    0.121600   -0.000077   -0.013255
H    -3.022951   -0.309325    0.827966   -0.065656    0.061261   -0.020779
15
* Frequency(6) -1666.7626
C     0.145202   -1.147189   -0.083305   -0.035150   -0.006690   -0.002885
C    -0.493880   -0.014354   -0.102891    0.077478   -0.019765    0.004730
H    -0.270110   -2.141627   -0.153505   -0.007733   -0.014250    0.027013
C     0.307587    1.231344    0.112479   -0.018274    0.022891    0.004961
H    -2.412771    0.038130   -0.167105   -1.979462   -0.046425    0.208706
C     1.737357    0.656570   -0.116557   -0.002798   -0.001323   -0.002470
H     0.066887    2.035833   -0.578906   -0.005315    0.007620   -0.004161
H     0.169550    1.605026    1.128967   -0.021629   -0.000928    0.004169
C     1.631040   -0.867508    0.120033   -0.001767    0.003094   -0.004755
H     2.019781    0.837633   -1.153664   -0.013979    0.006755    0.000229
H     2.475575    1.136511    0.526422   -0.022466    0.011670    0.010856
H     2.262706   -1.438702   -0.561871   -0.013820    0.000622   -0.009728
H     1.912682   -1.144586    1.141013   -0.032206   -0.003744   -0.000925
O    -2.939318    0.032089   -0.068500    0.121600   -0.000077   -0.013255
H    -3.025990   -0.306489    0.827004   -0.065656    0.061261   -0.020779
15
* Frequency(6) -1666.7626
C     0.144868   -1.147253   -0.083333   -0.035150   -0.006690   -0.002885
C    -0.493143   -0.014542   -0.102846    0.077478   -0.019765    0.004730
H    -0.270184   -2.141762   -0.153248   -0.007733   -0.014250    0.027013
C     0.307413    1.231562    0.112526   -0.018274    0.022891    0.004961
H    -2.431605    0.037688   -0.165119   -1.979462   -0.046425    0.208706
C     1.737331    0.656558   -0.116581   -0.002798   -0.001323   -0.002470
H     0.066836    2.035905   -0.578945   -0.005315    0.007620   -0.004161
H     0.169344    1.605017    1.129007   -0.021629   -0.000928    0.004169
C     1.631023   -0.867478    0.119988   -0.001767    0.003094   -0.004755
H     2.019648    0.837697   -1.153662   -0.013979    0.006755    0.000229
H     2.475362    1.136623    0.526525   -0.022466    0.011670    0.010856
H     2.262575   -1.438696   -0.561964   -0.013820    0.000622   -0.009728
H     1.912375   -1.144622    1.141004   -0.032206   -0.003744   -0.000925
O    -2.938161    0.032088   -0.068626    0.121600   -0.000077   -0.013255
H    -3.026615   -0.305907    0.826807   -0.065656    0.061261   -0.020779
15
* Frequency(6) -1666.7626
C     0.145862   -1.147063   -0.083251   -0.035150   -0.006690   -0.002885
C    -0.495335   -0.013983   -0.102980    0.077478   -0.019765    0.004730
H    -0.269965   -2.141359   -0.154012   -0.007733   -0.014250    0.027013
C     0.307930    1.230914    0.112386   -0.018274    0.022891    0.004961
H    -2.375618    0.039001   -0.171022   -1.979462   -0.046425    0.208706
C     1.737410    0.656595   -0.116511   -0.002798   -0.001323   -0.002470
H     0.066986    2.035690   -0.578828   -0.005315    0.007620   -0.004161
H     0.169956    1.605043    1.128889   -0.021629   -0.000928    0.004169
C     1.631073   -0.867566    0.120122   -0.001767    0.003094   -0.004755
H     2.020044    0.837506   -1.153668   -0.013979    0.006755    0.000229
H     2.475997    1.136292    0.526218   -0.022466    0.011670    0.010856
H     2.262966   -1.438714   -0.561689   -0.013820    0.000622   -0.009728
H     1.913286   -1.144516    1.141030   -0.032206   -0.003744   -0.000925
O    -2.941600    0.032090   -0.068251    0.121600   -0.000077   -0.013255
H    -3.024758   -0.307639    0.827394   -0.065656    0.061261   -0.020779
15
* Frequency(6) -1666.7626
C     0.148077   -1.146642   -0.083069   -0.035150   -0.006690   -0.002885
C    -0.500217   -0.012737   -0.103278    0.077478   -0.019765    0.004730
H    -0.269478   -2.140461   -0.155714   -0.007733   -0.014250    0.027013
C     0.309081    1.229472    0.112073   -0.018274    0.022891    0.004961
H    -2.250878    0.041927   -0.184174   -1.979462   -0.046425    0.208706
C     1.737586    0.656678   -0.116355   -0.002798   -0.001323   -0.002470
H     0.067321    2.035209   -0.578566   -0.005315    0.007620   -0.004161
H     0.171319    1.605101    1.128626   -0.021629   -0.000928    0.004169
C     1.631184   -0.867761    0.120422   -0.001767    0.003094   -0.004755
H     2.020925    0.837080   -1.153683   -0.013979    0.006755    0.000229
H     2.477413    1.135557    0.525534   -0.022466    0.011670    0.010856
H     2.263837   -1.438753   -0.561076   -0.013820    0.000622   -0.009728
H     1.915316   -1.144280    1.141089   -0.032206   -0.003744   -0.000925
O    -2.949263    0.032095   -0.067416    0.121600   -0.000077   -0.013255
H    -3.020620   -0.311500    0.828704   -0.065656    0.061261   -0.020779
15
* Frequency(6) -1666.7626
C     0.151273   -1.146033   -0.082807   -0.035150   -0.006690   -0.002885
C    -0.507262   -0.010940   -0.103708    0.077478   -0.019765    0.004730
H    -0.268775   -2.139165   -0.158170   -0.007733   -0.014250    0.027013
C     0.310743    1.227391    0.111622   -0.018274    0.022891    0.004961
H    -2.070901    0.046148   -0.203150   -1.979462   -0.046425    0.208706
C     1.737841    0.656799   -0.116130   -0.002798   -0.001323   -0.002470
H     0.067805    2.034517   -0.578187   -0.005315    0.007620   -0.004161
H     0.173285    1.605186    1.128247   -0.021629   -0.000928    0.004169
C     1.631345   -0.868042    0.120854   -0.001767    0.003094   -0.004755
H     2.022196    0.836466   -1.153703   -0.013979    0.006755    0.000229
H     2.479455    1.134496    0.524547   -0.022466    0.011670    0.010856
H     2.265093   -1.438810   -0.560191   -0.013820    0.000622   -0.009728
H     1.918244   -1.143940    1.141173   -0.032206   -0.003744   -0.000925
O    -2.960319    0.032102   -0.066211    0.121600   -0.000077   -0.013255
H    -3.014651   -0.317070    0.830593   -0.065656    0.061261   -0.020779
15
* Frequency(6) -1666.7626
C     0.155103   -1.145304   -0.082493   -0.035150   -0.006690   -0.002885
C    -0.515705   -0.008787   -0.104223    0.077478   -0.019765    0.004730
H    -0.267932   -2.137613   -0.161114   -0.007733   -0.014250    0.027013
C     0.312734    1.224896    0.111082   -0.018274    0.022891    0.004961
H    -1.855193    0.051207   -0.225894   -1.979462   -0.046425    0.208706
C     1.738146    0.656943   -0.115861   -0.002798   -0.001323   -0.002470
H     0.068384    2.033686   -0.577734   -0.005315    0.007620   -0.004161
H     0.175642    1.605287    1.127793   -0.021629   -0.000928    0.004169
C     1.631538   -0.868379    0.121373   -0.001767    0.003094   -0.004755
H     2.023719    0.835730   -1.153728   -0.013979    0.006755    0.000229
H     2.481903    1.133224    0.523364   -0.022466    0.011670    0.010856
H     2.266599   -1.438877   -0.559131   -0.013820    0.000622   -0.009728
H     1.921754   -1.143532    1.141274   -0.032206   -0.003744   -0.000925
O    -2.973570    0.032111   -0.064766    0.121600   -0.000077   -0.013255
H    -3.007496   -0.323745    0.832857   -0.065656    0.061261   -0.020779
15
* Frequency(6) -1666.7626
C     0.159153   -1.144533   -0.082160   -0.035150   -0.006690   -0.002885
C    -0.524631   -0.006509   -0.104768    0.077478   -0.019765    0.004730
H    -0.267041   -2.135971   -0.164226   -0.007733   -0.014250    0.027013
C     0.314840    1.222259    0.110510   -0.018274    0.022891    0.004961
H    -1.627126    0.056556   -0.249940   -1.979462   -0.046425    0.208706
C     1.738468    0.657095   -0.115577   -0.002798   -0.001323   -0.002470
H     0.068996    2.032808   -0.577254   -0.005315    0.007620   -0.004161
H     0.178134    1.605394    1.127312   -0.021629   -0.000928    0.004169
C     1.631741   -0.868736    0.121920   -0.001767    0.003094   -0.004755
H     2.025330    0.834952   -1.153755   -0.013979    0.006755    0.000229
H     2.484492    1.131880    0.522113   -0.022466    0.011670    0.010856
H     2.268191   -1.438949   -0.558010   -0.013820    0.000622   -0.009728
H     1.925464   -1.143100    1.141380   -0.032206   -0.003744   -0.000925
O    -2.987581    0.032119   -0.063239    0.121600   -0.000077   -0.013255
H    -2.999931   -0.330804    0.835251   -0.065656    0.061261   -0.020779
15
* Frequency(6) -1666.7626
C     0.162984   -1.143804   -0.081846   -0.035150   -0.006690   -0.002885
C    -0.533075   -0.004355   -0.105284    0.077478   -0.019765    0.004730
H    -0.266198   -2.134418   -0.167170   -0.007733   -0.014250    0.027013
C     0.316831    1.219764    0.109969   -0.018274    0.022891    0.004961
H    -1.411418    0.061615   -0.272683   -1.979462   -0.046425    0.208706
C     1.738773    0.657239   -0.115307   -0.002798   -0.001323   -0.002470
H     0.069576    2.031978   -0.576801   -0.005315    0.007620   -0.004161
H     0.180491    1.605495    1.126858   -0.021629   -0.000928    0.004169
C     1.631934   -0.869073    0.122439   -0.001767    0.003094   -0.004755
H     2.026853    0.834216   -1.153780   -0.013979    0.006755    0.000229
H     2.486940    1.130608    0.520930   -0.022466    0.011670    0.010856
H     2.269697   -1.439017   -0.556950   -0.013820    0.000622   -0.009728
H     1.928974   -1.142692    1.141481   -0.032206   -0.003744   -0.000925
O    -3.000832    0.032128   -0.061794    0.121600   -0.000077   -0.013255
H    -2.992776   -0.337479    0.837516   -0.065656    0.061261   -0.020779
15
* Frequency(6) -1666.7626
C     0.166180   -1.143196   -0.081583   -0.035150   -0.006690   -0.002885
C    -0.540119   -0.002558   -0.105714    0.077478   -0.019765    0.004730
H    -0.265495   -2.133122   -0.169626   -0.007733   -0.014250    0.027013
C     0.318493    1.217683    0.109518   -0.018274    0.022891    0.004961
H    -1.231441    0.065836   -0.291659   -1.979462   -0.046425    0.208706
C     1.739028    0.657360   -0.115083   -0.002798   -0.001323   -0.002470
H     0.070059    2.031285   -0.576423   -0.005315    0.007620   -0.004161
H     0.182458    1.605579    1.126479   -0.021629   -0.000928    0.004169
C     1.632094   -0.869354    0.122871   -0.001767    0.003094   -0.004755
H     2.028124    0.833601   -1.153801   -0.013979    0.006755    0.000229
H     2.488983    1.129547    0.519943   -0.022466    0.011670    0.010856
H     2.270954   -1.439073   -0.556066   -0.013820    0.000622   -0.009728
H     1.931902   -1.142352    1.141565   -0.032206   -0.003744   -0.000925
O    -3.011888    0.032135   -0.060589    0.121600   -0.000077   -0.013255
H    -2.986807   -0.343049    0.839405   -0.065656    0.061261   -0.020779
15
* Frequency(6) -1666.7626
C     0.168395   -1.142774   -0.081402   -0.035150   -0.006690   -0.002885
C    -0.545001   -0.001313   -0.106012    0.077478   -0.019765    0.004730
H    -0.265008   -2.132224   -0.171328   -0.007733   -0.014250    0.027013
C     0.319644    1.216240    0.109206   -0.018274    0.022891    0.004961
H    -1.106701    0.068762   -0.304811   -1.979462   -0.046425    0.208706
C     1.739204    0.657443   -0.114927   -0.002798   -0.001323   -0.002470
H     0.070394    2.030805   -0.576161   -0.005315    0.007620   -0.004161
H     0.183821    1.605638    1.126216   -0.021629   -0.000928    0.004169
C     1.632206   -0.869549    0.123171   -0.001767    0.003094   -0.004755
H     2.029005    0.833176   -1.153815   -0.013979    0.006755    0.000229
H     2.490398    1.128812    0.519259   -0.022466    0.011670    0.010856
H     2.271825   -1.439112   -0.555453   -0.013820    0.000622   -0.009728
H     1.933932   -1.142116    1.141623   -0.032206   -0.003744   -0.000925
O    -3.019551    0.032140   -0.059754    0.121600   -0.000077   -0.013255
H    -2.982669   -0.346910    0.840714   -0.065656    0.061261   -0.020779
15
* Frequency(6) -1666.7626
C     0.169389   -1.142585   -0.081320   -0.035150   -0.006690   -0.002885
C    -0.547193   -0.000754   -0.106146    0.077478   -0.019765    0.004730
H    -0.264789   -2.131821   -0.172092   -0.007733   -0.014250    0.027013
C     0.320161    1.215593    0.109065   -0.018274    0.022891    0.004961
H    -1.050714    0.070075   -0.310714   -1.979462   -0.046425    0.208706
C     1.739283    0.657480   -0.114857   -0.002798   -0.001323   -0.002470
H     0.070544    2.030589   -0.576043   -0.005315    0.007620   -0.004161
H     0.184433    1.605664    1.126098   -0.021629   -0.000928    0.004169
C     1.632256   -0.869637    0.123305   -0.001767    0.003094   -0.004755
H     2.029400    0.832985   -1.153822   -0.013979    0.006755    0.000229
H     2.491034    1.128481    0.518952   -0.022466    0.011670    0.010856
H     2.272216   -1.439130   -0.555177   -0.013820    0.000622   -0.009728
H     1.934843   -1.142010    1.141650   -0.032206   -0.003744   -0.000925
O    -3.022990    0.032142   -0.059379    0.121600   -0.000077   -0.013255
H    -2.980812   -0.348643    0.841302   -0.065656    0.061261   -0.020779
15
* Frequency(6) -1666.7626
C     0.169054   -1.142649   -0.081348   -0.035150   -0.006690   -0.002885
C    -0.546456   -0.000942   -0.106101    0.077478   -0.019765    0.004730
H    -0.264863   -2.131957   -0.171835   -0.007733   -0.014250    0.027013
C     0.319987    1.215811    0.109113   -0.018274    0.022891    0.004961
H    -1.069548    0.069633   -0.308728   -1.979462   -0.046425    0.208706
C     1.739256    0.657468   -0.114881   -0.002798   -0.001323   -0.002470
H     0.070494    2.030662   -0.576083   -0.005315    0.007620   -0.004161
H     0.184227    1.605655    1.126138   -0.021629   -0.000928    0.004169
C     1.632239   -0.869607    0.123260   -0.001767    0.003094   -0.004755
H     2.029267    0.833049   -1.153819   -0.013979    0.006755    0.000229
H     2.490820    1.128592    0.519055   -0.022466    0.011670    0.010856
H     2.272084   -1.439124   -0.555270   -0.013820    0.000622   -0.009728
H     1.934536   -1.142045    1.141641   -0.032206   -0.003744   -0.000925
O    -3.021833    0.032141   -0.059505    0.121600   -0.000077   -0.013255
H    -2.981437   -0.348060    0.841104   -0.065656    0.061261   -0.020779
15
* Frequency(6) -1666.7626
C     0.167428   -1.142959   -0.081481   -0.035150   -0.006690   -0.002885
C    -0.542870   -0.001857   -0.105882    0.077478   -0.019765    0.004730
H    -0.265221   -2.132616   -0.170585   -0.007733   -0.014250    0.027013
C     0.319141    1.216870    0.109342   -0.018274    0.022891    0.004961
H    -1.161161    0.067485   -0.299069   -1.979462   -0.046425    0.208706
C     1.739127    0.657407   -0.114995   -0.002798   -0.001323   -0.002470
H     0.070248    2.031015   -0.576275   -0.005315    0.007620   -0.004161
H     0.183226    1.605612    1.126331   -0.021629   -0.000928    0.004169
C     1.632157   -0.869464    0.123040   -0.001767    0.003094   -0.004755
H     2.028620    0.833361   -1.153809   -0.013979    0.006755    0.000229
H     2.489780    1.129133    0.519558   -0.022466    0.011670    0.010856
H     2.271445   -1.439095   -0.555720   -0.013820    0.000622   -0.009728
H     1.933046   -1.142219    1.141598   -0.032206   -0.003744   -0.000925
O    -3.016205    0.032138   -0.060119    0.121600   -0.000077   -0.013255
H    -2.984476   -0.345224    0.840143   -0.065656    0.061261   -0.020779
15
* Frequency(6) -1666.7626
C     0.164685   -1.143481   -0.081706   -0.035150   -0.006690   -0.002885
C    -0.536824   -0.003399   -0.105513    0.077478   -0.019765    0.004730
H    -0.265824   -2.133728   -0.168477   -0.007733   -0.014250    0.027013
C     0.317715    1.218656    0.109729   -0.018274    0.022891    0.004961
H    -1.315626    0.063862   -0.282783   -1.979462   -0.046425    0.208706
C     1.738909    0.657303   -0.115188   -0.002798   -0.001323   -0.002470
H     0.069833    2.031609   -0.576600   -0.005315    0.007620   -0.004161
H     0.181538    1.605540    1.126656   -0.021629   -0.000928    0.004169
C     1.632019   -0.869223    0.122669   -0.001767    0.003094   -0.004755
H     2.027529    0.833889   -1.153791   -0.013979    0.006755    0.000229
H     2.488027    1.130043    0.520405   -0.022466    0.011670    0.010856
H     2.270366   -1.439047   -0.556479   -0.013820    0.000622   -0.009728
H     1.930533   -1.142511    1.141526   -0.032206   -0.003744   -0.000925
O    -3.006716    0.032132   -0.061153    0.121600   -0.000077   -0.013255
H    -2.989599   -0.340444    0.838521   -0.065656    0.061261   -0.020779
15
* Frequency(6) -1666.7626
C     0.161123   -1.144159   -0.081998   -0.035150   -0.006690   -0.002885
C    -0.528973   -0.005402   -0.105033    0.077478   -0.019765    0.004730
H    -0.266608   -2.135172   -0.165740   -0.007733   -0.014250    0.027013
C     0.315864    1.220976    0.110232   -0.018274    0.022891    0.004961
H    -1.516204    0.059158   -0.261635   -1.979462   -0.046425    0.208706
C     1.738625    0.657169   -0.115438   -0.002798   -0.001323   -0.002470
H     0.069294    2.032381   -0.577021   -0.005315    0.007620   -0.004161
H     0.179346    1.605446    1.127079   -0.021629   -0.000928    0.004169
C     1.631840   -0.868909    0.122187   -0.001767    0.003094   -0.004755
H     2.026113    0.834573   -1.153768   -0.013979    0.006755    0.000229
H     2.485751    1.131226    0.521505   -0.022466    0.011670    0.010856
H     2.268966   -1.438984   -0.557465   -0.013820    0.000622   -0.009728
H     1.927269   -1.142890    1.141432   -0.032206   -0.003744   -0.000925
O    -2.994395    0.032124   -0.062496    0.121600   -0.000077   -0.013255
H    -2.996252   -0.334237    0.836416   -0.065656    0.061261   -0.020779
15
* Frequency(6) -1666.7626
C     0.157128   -1.144919   -0.082326   -0.035150   -0.006690   -0.002885
C    -0.520168   -0.007648   -0.104496    0.077478   -0.019765    0.004730
H    -0.267487   -2.136792   -0.162670   -0.007733   -0.014250    0.027013
C     0.313787    1.223577    0.110796   -0.018274    0.022891    0.004961
H    -1.741160    0.053882   -0.237917   -1.979462   -0.046425    0.208706
C     1.738307    0.657019   -0.115719   -0.002798   -0.001323   -0.002470
H     0.068690    2.033247   -0.577494   -0.005315    0.007620   -0.004161
H     0.176888    1.605340    1.127553   -0.021629   -0.000928    0.004169
C     1.631639   -0.868557    0.121646   -0.001767    0.003094   -0.004755
H     2.024524    0.835341   -1.153742   -0.013979    0.006755    0.000229
H     2.483198    1.132552    0.522739   -0.022466    0.011670    0.010856
H     2.267395   -1.438913   -0.558571   -0.013820    0.000622   -0.009728
H     1.923609   -1.143316    1.141327   -0.032206   -0.003744   -0.000925
O    -2.980575    0.032115   -0.064003    0.121600   -0.000077   -0.013255
H    -3.003713   -0.327275    0.834054   -0.065656    0.061261   -0.020779
