
                                 *****************
                                 * O   R   C   A *
                                 *****************

                                            #,                                       
                                            ###                                      
                                            ####                                     
                                            #####                                    
                                            ######                                   
                                           ########,                                 
                                     ,,################,,,,,                         
                               ,,#################################,,                 
                          ,,##########################################,,             
                       ,#########################################, ''#####,          
                    ,#############################################,,   '####,        
                  ,##################################################,,,,####,       
                ,###########''''           ''''###############################       
              ,#####''   ,,,,##########,,,,          '''####'''          '####       
            ,##' ,,,,###########################,,,                        '##       
           ' ,,###''''                  '''############,,,                           
         ,,##''                                '''############,,,,        ,,,,,,###''
      ,#''                                            '''#######################'''  
     '                                                          ''''####''''         
             ,#######,   #######,   ,#######,      ##                                
            ,#'     '#,  ##    ##  ,#'     '#,    #''#        ,####,    ,#,          
            ##       ##  ##   ,#'  ##            #'  '#       #'       ,# #          
            ##       ##  #######   ##           ,######,      #####,      #          
            '#,     ,#'  ##    ##  '#,     ,#' ,#      #,     #,   #      #          
             '#######'   ##     ##  '#######'  #'      '#     '####' #    #          



                #########################################################
                #                        -***-                          #
                #          Department of theory and spectroscopy        #
                #                                                       #
                #                      Frank Neese                      #
                #                                                       #
                #     Directorship, Architecture, Infrastructure        #
                #                    SHARK, DRIVERS                     #
                #        Core code/Algorithms in most modules           #
                #                                                       #
                #        Max Planck Institute fuer Kohlenforschung      #
                #                Kaiser Wilhelm Platz 1                 #
                #                 D-45470 Muelheim/Ruhr                 #
                #                      Germany                          #
                #                                                       #
                #                  All rights reserved                  #
                #                        -***-                          #
                #########################################################


                         Program Version 6.1.1  -  RELEASE   -
                                (GIT: $487d211c$)
                          ($2025-11-21 10:33:24 +0100$)


 With contributions from (in alphabetic order):
[Max-Planck-Institut fuer Kohlenforschung]                               
  Daniel Aravena         : Magnetic Suceptibility                        
  Michael Atanasov       : Ab Initio Ligand Field Theory (pilot matlab implementation)
  Alexander A. Auer      : GIAO ZORA, VPT2 properties, NMR spectrum      
  Ute Becker             : All parallelization in ORCA, NUMFREQ, NUMCALC 
  Giovanni Bistoni       : ED, misc. LED, open-shell LED, HFLD           
  Dmytro Bykov           : pre 5.0 version of the SCF Hessian            
  Marcos Casanova-Páez   : Triplet and SCS-CIS(D). UHF-(DLPNO)-IP/EA/STEOM-CCSD. UHF-CVS-IP/STEOM-CCSD   
  Vijay G. Chilkuri      : MRCI spin determinant printing, contributions to CSF-ICE 
  Pauline Colinet        : FMM embedding                                 
  Dipayan Datta          : RHF DLPNO-CCSD density                        
  Achintya Kumar Dutta   : EOM-CC, STEOM-CC                              
  Nicolas Foglia         : Exact transition moments, OPA infrastructure, MCD improvements    
  Dmitry Ganyushin       : Spin-Orbit,Spin-Spin,Magnetic field MRCI      
  Miquel Garcia-Rates    : C-PCM and meta-GGA Hessian, CCSD/C-PCM, Gaussian charge scheme 
  Tiago L. C. Gouveia    : GS-ROHF, GS-ROCIS                             
  Yang Guo               : DLPNO-NEVPT2, F12-NEVPT2, CIM, IAO-localization        
  Andreas Hansen         : Spin unrestricted coupled pair/coupled cluster methods 
  Ingolf Harden          : AUTO-CI MPn and infrastructure                
  Benjamin Helmich-Paris : MC-RPA, TRAH-(SCF,CASSCF), AVAS, COSX integrals, SCF dyn. polar., MC-PDFT, srDFT 
  Lee Huntington         : MR-EOM, pCC                                   
  Robert Izsak           : Overlap fitted RIJCOSX, COSX-SCS-MP3, EOM     
  Riya Kayal             : Wick's Theorem for AUTO-CI, AUTO-CI UHF-CCSDT 
  Emily Kempfer          : AUTO-CI RHF CISDT and CCSDT, approximate NEVPT4
  Christian Kollmar      : KDIIS, OOCD, Brueckner-CCSD(T), CCSD density, CASPT2, CASPT2-K, improved NEVPT2 
  Axel Koslowski         : Symmetry handling                             
  Simone Kossmann        : meta-GGA functionals, TD-DFT gradient, OOMP2, (MP2 Hessian; deprecated post 5.0) 
  Lucas Lang             : DCDCAS, Hyperfine gauge corrections, ICE-SOC+SSC
  Marvin Lechner         : AUTO-CI (C++ implementation), FIC-MRCC        
  Spencer Leger          : CASSCF response                               
  Dagmar Lenk            : GEPOL surface, SMD, ORCA-2-JSON               
  Dimitrios Liakos       : Extrapolation schemes; Compound Job, Property file
  Dimitrios Manganas     : Further ROCIS development; embedding schemes. LFT, Crystal Embedding 
  Dimitrios Pantazis     : SARC Basis sets                               
  Anastasios Papadopoulos: AUTO-CI, single reference methods and gradients 
  Taras Petrenko         : pre 6.0 DFT Hessian and TD-DFT gradient,  ECA, NRVS 
  Petra Pikulova         : Analytic Raman intensities                    
  Peter Pinski           : DLPNO-MP2, DLPNO-MP2 Gradient                 
  Shashank Vittal Rao    : ES-AILFT, MagRelax                            
  Christoph Reimann      : Effective Core Potentials                     
  Marius Retegan         : Local ZFS, SOC                                
  Christoph Riplinger    : Optimizer, TS searches, QM/MM, DLPNO-CCSD(T), (RO)-DLPNO pert. Triples 
  Michael Roemelt        : Original ROCIS implementation, recursive CI coupling coefficients
  Masaaki Saitow         : Open-shell DLPNO-CCSD energy and density      
  Barbara Sandhoefer     : DKH picture change effects                    
  Yorick L. A. Schmerwitz: GMF and freeze-and-release deltaSCF, NEB S-IDPP initial path                    
  Kantharuban Sivalingam : CASSCF convergence/infrastructure, NEVPT2, NEVPT3, NEVPT4(SD), FIC-MRCI and CEPA variants
  Bernardo de Souza      : ESD, SOC TD-DFT                               
  Georgi L. Stoychev     : AutoAux, RI-MP2 NMR, DLPNO-MP2 response, X2C  
  Van Anh Tran           : RI-MP2 g-tensors                              
  Willem Van den Heuvel  : Paramagnetic NMR                              
  Zikuan Wang            : NOTCH, Electric field optimization            
  Frank Wennmohs         : Technical directorship and infrastructure     
  Hang Xu                : AUTO-CI-Response properties                   
                                                                         
[FACCTs GmbH]                                                            
  Markus Bursch, Nicolas Foglia, Miquel Garcia-Rates, Ingolf Harden, Hagen Neugebauer, Anastasios Papadopoulos, 
  Christoph Riplinger, Bernardo de Souza, Georgi L. Stoychev                                                    
                                                                 
  APM, various basis sets, CI-OPT, improved COSX, DLPNO-Multilevel,           
  DOCKER, DRACO, updates on ESD, Fragmentator, GOAT, IRC, LR-CPCM, L-BFGS, MBIS, meta-GGA TD-DFT gradient, ML-optimized integration grids, 
  MM, NACMEs, nearIR, NEB, NEB-TS, NL-DFT gradient (VV10), 2- and 3-layer-ONIOM, interface openCOSMO-RS, QMMM,   
  Crystal-QMMM, RESP, rigid body optimization, SF, symmetry and pop. for TD-DFT, various functionals, SOLVATOR                                   
                                                                         
[Other institutions]                                                     
  V. Asgeirsson          : NEB                                           
  Christoph Bannwarth    : sTDA-DFT, sTD-DFT, PBEh-3c, B97-3c, D3        
  Giovanni Bistoni       : ETS/NOCV, ADLD/ADEX, COVALED                  
  Martin Brehm           : Molecular dynamics                            
  Ronald Cardenas        : ETS/NOCV                                      
  Martina Colucci        : COVALED                                       
  Sebastian Ehlert       : rSCAN, r2SCAN, r2SCAN-3c, D4, dhf basis sets  
  Marvin Friede          : D4 for Fr, Ra, Ac-Lr                          
  Lars Goerigk           : TD-DFT with DH, B97 family of functionals     
  Stefan Grimme          : VdW corrections, initial TS optimization, DFT functionals, gCP, sTDA/sTD-DF 
  Waldemar Hujo          : DFT-NL                                        
  H. Jonsson             : NEB                                           
  Holger Kruse           : gCP                                           
  Marcel Mueller         : wB97X-3c, vDZP basis set                      
  Hagen Neugebauer       : wr2SCAN, Native XTB                           
  Gianluca Regni         : ADLD/ADEX                                     
  Tobias Risthaus        : pre 6.0 range-separated hybrid DFT and stability analysis
  Lukas Wittmann         : regularized MP2, r2SCAN double-hybrids, wr2SCAN        
                                                                         
We gratefully acknowledge several colleagues who have allowed us to      
interface, adapt or use parts of their codes:                            
  Ed Valeev, F. Pavosevic, A. Kumar             : LibInt (2-el integral package), F12 methods 
  Garnet Chan, S. Sharma, J. Yang, R. Olivares  : DMRG                   
  Ulf Ekstrom                                   : XCFun DFT Library      
  Mihaly Kallay                                 : mrcc  (arbitrary order and MRCC methods)
  Frank Weinhold                                : gennbo (NPA and NBO analysis)           
  Simon Mueller                                 : openCOSMO-RS                            
  Christopher J. Cramer and Donald G. Truhlar   : smd solvation model                     
  S Lehtola, MJT Oliveira, MAL Marques          : LibXC Library                           
  Liviu Ungur et al                             : ANISO software                          


 Your calculation uses the libint2 library for the computation of 2-el integrals
 For citations please refer to: http://libint.valeyev.net

 Your ORCA version has been built with support for libXC version: 7.0.0
 For citations please refer to: https://libxc.gitlab.io

 This ORCA versions uses:
   CBLAS   interface :  Fast vector & matrix operations
   LAPACKE interface :  Fast linear algebra routines
   SCALAPACK package :  Parallel linear algebra routines
   Shared memory     :  Shared parallel matrices
   BLAS/LAPACK       :  OpenBLAS 0.3.29  USE64BITINT DYNAMIC_ARCH NO_AFFINITY Cooperlake SINGLE_THREADED
        Core in use  :  Cooperlake
   Copyright (c) 2011-2014, The OpenBLAS Project


  ***********************************
  * Starting time: Mon Mar  9 21:45:07 2026
  * Host name:     e3-5
  * Process ID:    3412601
  * Working dir.:  /home/avcopan/proj/project-cyclopentane/code/oh-addition/calc/cyC5e1/RH+OH-c5_R-vinyl+H2O_saddle
  ***********************************

NOTE: MaxCore=7500 MB was set to SCF,MP2,MDCI,CIPSI,MRCI,RASCI and CIS
      => If you want to overwrite this, your respective input block should be placed after the MaxCore statement


***************************************
The coordinates will be read from file: guess.xyz
***************************************


Your calculation utilizes the atom-pairwise dispersion correction
based on EEQ partial charges (D4)


Warning: RI is on but no J-basis has been assigned. Assigning Def2/J (nothing to worry about!)
================================================================================

----- Orbital basis set information -----
Your calculation utilizes the basis: def2-TZVPP
   F. Weigend and R. Ahlrichs, Phys. Chem. Chem. Phys. 7, 3297 (2005).

----- AuxJ basis set information -----
Your calculation utilizes the auxiliary basis: def2/J
   H-Rn: F. Weigend, Phys. Chem. Chem. Phys. 8, 1057 (2006).
   Fr-Lr: K. Eichkorn, F. Weigend, O. Treutler, R. Ahlrichs; Theor. Chem. Acc. 97, 119 (1997).

----- AuxC basis set information -----
Your calculation utilizes the auxiliary basis: def2-TZVPP/C
  H-La, Hf-Rn : A. Hellweg, C. Hattig, S. Hofener and W. Klopper, Theor. Chem. Acc. 117, 587 (2007).
        Ce-Lu : J. Chmela and M. E. Harding, Mol. Phys. (2018).

================================================================================
                                        WARNINGS
                       Please study these warnings very carefully!
================================================================================


WARNING: your system is open-shell and RHF/RKS was chosen
  ===> : WILL SWITCH to UHF/UKS


WARNING: The frozen-core approximation for MP2-gradient calculations is turned on by default.

WARNING: The environment variable RSH_COMMAND is not set!
  ===> : All Displacements for the Numerical Hessian or Gradient calculation
         will be started on localhost

WARNING: Geometry Optimization
  ===> : Switching off AutoStart
         For restart on a previous wavefunction, please use MOREAD

WARNING: The frozen-core approximation is turned on by default for 
         the MP2 part of double-hybrid DFT.

================================================================================
                                       INPUT FILE
================================================================================
NAME = opt.inp
|  1> % MaxCore 7500
|  2> ! PAL8
|  3> ! REVDSD-PBEP86-D4/2021 def2-TZVPP def2-TZVPP/c
|  4> ! OptTS
|  5> ! NumFreq
|  6> %geom 
|  7>    Calc_Hess true
|  8>    NumHess   true
|  9> end
| 10> * xyzfile 0 2 guess.xyz
| 11> 
| 12>                          ****END OF INPUT****
================================================================================

                       *****************************
                       * Geometry Optimization Run *
                       *****************************

Geometry optimization settings:
Update method            Update   .... Bofill
Choice of coordinates    CoordSys .... (2022) Redundant Internals
Initial Hessian          InHess   .... Almloef's Model
Max. no of cycles        MaxIter  .... 50

Convergence Tolerances:
Energy Change            TolE     ....  5.0000e-06 Eh
Max. Gradient            TolMAXG  ....  3.0000e-04 Eh/bohr
RMS Gradient             TolRMSG  ....  1.0000e-04 Eh/bohr
Max. Displacement        TolMAXD  ....  4.0000e-03 bohr
RMS Displacement         TolRMSD  ....  2.0000e-03 bohr
Strict Convergence                .... False

------------------------------------------------------------------------------
                        ORCA OPTIMIZATION COORDINATE SETUP
------------------------------------------------------------------------------

The optimization will be done in redundant internal coordinates (2022)
Making redundant internal coordinates   ...  (2022 redundants) done
Following TS mode number                ...     0
Evaluating the initial hessian          ...  (Is done on the fly) done
Evaluating the coordinates              ...  done
Calculating the B-matrix                .... done
Calculating the G-matrix                .... done
The number of degrees of freedom        ....   70

    -----------------------------------------------------------------
                    Redundant Internal Coordinates


    -----------------------------------------------------------------
         Definition                    Initial Value    d2E/dq (diagonal element)
    -----------------------------------------------------------------
      1. B(C   1,C   0)                  1.3248         0.000000   
      2. B(H   2,C   0)                  1.0822         0.000000   
      3. B(C   3,C   1)                  1.5028         0.000000   
      4. B(H   4,C   1)                  1.2292         0.000000   
      5. B(C   5,C   3)                  1.5496         0.000000   
      6. B(H   6,C   3)                  1.0908         0.000000   
      7. B(H   7,C   3)                  1.0949         0.000000   
      8. B(C   8,C   5)                  1.5476         0.000000   
      9. B(C   8,C   0)                  1.5141         0.000000   
     10. B(H   9,C   5)                  1.0917         0.000000   
     11. B(H  10,C   5)                  1.0905         0.000000   
     12. B(H  11,C   8)                  1.0921         0.000000   
     13. B(H  12,C   8)                  1.0959         0.000000   
     14. B(O  13,H   4)                  1.2543         0.000000   
     15. B(H  14,O  13)                  0.9677         0.000000   
     16. A(C   1,C   0,H   2)          125.8360         0.000000   
     17. A(C   1,C   0,C   8)          110.0805         0.000000   
     18. A(H   2,C   0,C   8)          124.0514         0.000000   
     19. A(C   0,C   1,H   4)          123.5639         0.000000   
     20. A(C   3,C   1,H   4)          121.7416         0.000000   
     21. A(C   0,C   1,C   3)          114.6375         0.000000   
     22. A(C   5,C   3,H   6)          112.7072         0.000000   
     23. A(C   1,C   3,H   6)          113.1839         0.000000   
     24. A(C   1,C   3,C   5)          100.9144         0.000000   
     25. A(H   6,C   3,H   7)          107.4175         0.000000   
     26. A(C   5,C   3,H   7)          112.2065         0.000000   
     27. A(C   1,C   3,H   7)          110.4306         0.000000   
     28. A(C   1,H   4,O  13)          165.0782         0.000000   
     29. A(C   3,C   5,H   9)          108.6478         0.000000   
     30. A(C   3,C   5,C   8)          105.9120         0.000000   
     31. A(H   9,C   5,H  10)          107.8744         0.000000   
     32. A(C   8,C   5,H  10)          112.8222         0.000000   
     33. A(C   3,C   5,H  10)          112.5499         0.000000   
     34. A(C   8,C   5,H   9)          108.9277         0.000000   
     35. A(C   0,C   8,C   5)          103.0578         0.000000   
     36. A(H  11,C   8,H  12)          107.0894         0.000000   
     37. A(C   5,C   8,H  12)          111.7939         0.000000   
     38. A(C   0,C   8,H  12)          109.8050         0.000000   
     39. A(C   5,C   8,H  11)          112.3040         0.000000   
     40. A(C   0,C   8,H  11)          112.8492         0.000000   
     41. A(H   4,O  13,H  14)           99.0677         0.000000   
     42. D(C   3,C   1,C   0,C   8)     -1.6039         0.000000   
     43. D(C   3,C   1,C   0,H   2)    176.3955         0.000000   
     44. D(H   4,C   1,C   0,H   2)     -0.8987         0.000000   
     45. D(H   4,C   1,C   0,C   8)   -178.8981         0.000000   
     46. D(C   5,C   3,C   1,C   0)     15.3242         0.000000   
     47. D(H   6,C   3,C   1,C   0)    136.0049         0.000000   
     48. D(H   7,C   3,C   1,C   0)   -103.5297         0.000000   
     49. D(H   6,C   3,C   1,H   4)    -46.6463         0.000000   
     50. D(C   5,C   3,C   1,H   4)   -167.3270         0.000000   
     51. D(O  13,H   4,C   1,C   3)   -100.4818         0.000000   
     52. D(O  13,H   4,C   1,C   0)     76.6260         0.000000   
     53. D(C   8,C   5,C   3,H   7)     95.4026         0.000000   
     54. D(C   8,C   5,C   3,C   1)    -22.1591         0.000000   
     55. D(H   9,C   5,C   3,C   1)     94.7254         0.000000   
     56. D(C   8,C   5,C   3,H   6)   -143.1777         0.000000   
     57. D(H   9,C   5,C   3,H   7)   -147.7130         0.000000   
     58. D(H   9,C   5,C   3,H   6)    -26.2932         0.000000   
     59. D(H  11,C   8,C   5,H  10)    -92.8540         0.000000   
     60. D(H  11,C   8,C   5,C   3)    143.6001         0.000000   
     61. D(C   0,C   8,C   5,H  10)    145.4111         0.000000   
     62. D(C   0,C   8,C   5,H   9)    -94.8307         0.000000   
     63. D(C   0,C   8,C   5,C   3)     21.8652         0.000000   
     64. D(H  12,C   8,C   0,C   1)    106.2486         0.000000   
     65. D(H  11,C   8,C   0,H   2)     47.5912         0.000000   
     66. D(H  11,C   8,C   0,C   1)   -134.3663         0.000000   
     67. D(H  11,C   8,C   5,H   9)     26.9041         0.000000   
     68. D(C   5,C   8,C   0,H   2)    168.9569         0.000000   
     69. D(C   5,C   8,C   0,C   1)    -13.0005         0.000000   
     70. D(H  14,O  13,H   4,C   1)     -5.7280         0.000000   
    -----------------------------------------------------------------

Number of atoms                         .... 15
Number of degrees of freedom            .... 70


         *************************************************************
         *                GEOMETRY OPTIMIZATION CYCLE   1            *
         *************************************************************
---------------------------------
CARTESIAN COORDINATES (ANGSTROEM)
---------------------------------
  C      0.158284   -1.144678   -0.079968
  C     -0.520420   -0.007205   -0.105350
  H     -0.265617   -2.137286   -0.158333
  C      0.313280    1.224685    0.108688
  H     -1.740762    0.053171   -0.239999
  C      1.737557    0.658319   -0.119239
  H      0.067147    2.034663   -0.579235
  H      0.177504    1.606082    1.126042
  C      1.632241   -0.866085    0.125975
  H      2.019497    0.830978   -1.159646
  H      2.484611    1.137968    0.513998
  H      2.270632   -1.439608   -0.549435
  H      1.921613   -1.134699    1.148316
  O     -2.982397    0.024168   -0.064529
  H     -3.001107   -0.334819    0.833893

----------------------------
CARTESIAN COORDINATES (A.U.)
----------------------------
  NO LB      ZA    FRAG     MASS         X           Y           Z
   0 C     6.0000    0    12.011    0.299113   -2.163128   -0.151118
   1 C     6.0000    0    12.011   -0.983451   -0.013615   -0.199083
   2 H     1.0000    0     1.008   -0.501943   -4.038885   -0.299206
   3 C     6.0000    0    12.011    0.592013    2.314319    0.205391
   4 H     1.0000    0     1.008   -3.289563    0.100479   -0.453532
   5 C     6.0000    0    12.011    3.283507    1.244043   -0.225329
   6 H     1.0000    0     1.008    0.126889    3.844956   -1.094596
   7 H     1.0000    0     1.008    0.335434    3.035055    2.127911
   8 C     6.0000    0    12.011    3.084488   -1.636663    0.238058
   9 H     1.0000    0     1.008    3.816296    1.570321   -2.191413
  10 H     1.0000    0     1.008    4.695234    2.150448    0.971315
  11 H     1.0000    0     1.008    4.290873   -2.720465   -1.038282
  12 H     1.0000    0     1.008    3.631322   -2.144270    2.170003
  13 O     8.0000    0    15.999   -5.635914    0.045671   -0.121942
  14 H     1.0000    0     1.008   -5.671270   -0.632716    1.575829

--------------------------------
INTERNAL COORDINATES (ANGSTROEM)
--------------------------------
 C      0   0   0     0.000000000000     0.00000000     0.00000000
 C      1   0   0     1.324812511742     0.00000000     0.00000000
 H      1   2   0     1.082175481468   125.83600455     0.00000000
 C      2   1   3     1.502804354380   114.63753718   176.39552743
 H      2   1   3     1.229231553264   123.56392757   359.10129343
 C      4   2   1     1.549608381500   100.91444531    15.32415994
 H      4   2   1     1.090817981197   113.18393816   136.00487663
 H      4   2   1     1.094946553536   110.43058256   256.47033730
 C      1   2   3     1.514125429661   110.08046388   182.00058853
 H      6   4   2     1.091672120891   108.64779471    94.72541932
 H      6   4   2     1.090477849516   112.54990148   214.12391907
 H      9   1   2     1.092085330233   112.84915067   225.63372347
 H      9   1   2     1.095933736893   109.80501159   106.24859335
 O      5   2   1     1.254307923970   165.07820032    76.62603265
 H     14   5   2     0.967669272196    99.06766555   354.27200907

---------------------------
INTERNAL COORDINATES (A.U.)
---------------------------
 C      0   0   0     0.000000000000     0.00000000     0.00000000
 C      1   0   0     2.503532825985     0.00000000     0.00000000
 H      1   2   0     2.045015288818   125.83600455     0.00000000
 C      2   1   3     2.839888662643   114.63753718   176.39552743
 H      2   1   3     2.322910990844   123.56392757   359.10129343
 C      4   2   1     2.928335455863   100.91444531    15.32415994
 H      4   2   1     2.061347246419   113.18393816   136.00487663
 H      4   2   1     2.069149117465   110.43058256   256.47033730
 C      1   2   3     2.861282394466   110.08046388   182.00058853
 H      6   4   2     2.062961336520   108.64779471    94.72541932
 H      6   4   2     2.060704490693   112.54990148   214.12391907
 H      9   1   2     2.063742189013   112.84915067   225.63372347
 H      9   1   2     2.071014623653   109.80501159   106.24859335
 O      5   2   1     2.370298463911   165.07820032    76.62603265
 H     14   5   2     1.828629912662    99.06766555   354.27200907

---------------------
BASIS SET INFORMATION
---------------------
There are 3 groups of distinct atoms

 Group   1 Type C   : 11s6p2d1f contracted to 5s3p2d1f pattern {62111/411/11/1}
 Group   2 Type H   : 5s2p1d contracted to 3s2p1d pattern {311/11/1}
 Group   3 Type O   : 11s6p2d1f contracted to 5s3p2d1f pattern {62111/411/11/1}

Atom   0C    basis set group =>   1
Atom   1C    basis set group =>   1
Atom   2H    basis set group =>   2
Atom   3C    basis set group =>   1
Atom   4H    basis set group =>   2
Atom   5C    basis set group =>   1
Atom   6H    basis set group =>   2
Atom   7H    basis set group =>   2
Atom   8C    basis set group =>   1
Atom   9H    basis set group =>   2
Atom  10H    basis set group =>   2
Atom  11H    basis set group =>   2
Atom  12H    basis set group =>   2
Atom  13O    basis set group =>   3
Atom  14H    basis set group =>   2
---------------------------------
AUXILIARY/J BASIS SET INFORMATION
---------------------------------
There are 3 groups of distinct atoms

 Group   1 Type C   : 12s5p4d2f1g contracted to 6s4p3d1f1g pattern {711111/2111/211/2/1}
 Group   2 Type H   : 5s2p1d contracted to 3s1p1d pattern {311/2/1}
 Group   3 Type O   : 12s5p4d2f1g contracted to 6s4p3d1f1g pattern {711111/2111/211/2/1}

Atom   0C    basis set group =>   1
Atom   1C    basis set group =>   1
Atom   2H    basis set group =>   2
Atom   3C    basis set group =>   1
Atom   4H    basis set group =>   2
Atom   5C    basis set group =>   1
Atom   6H    basis set group =>   2
Atom   7H    basis set group =>   2
Atom   8C    basis set group =>   1
Atom   9H    basis set group =>   2
Atom  10H    basis set group =>   2
Atom  11H    basis set group =>   2
Atom  12H    basis set group =>   2
Atom  13O    basis set group =>   3
Atom  14H    basis set group =>   2
---------------------------------
AUXILIARY/C BASIS SET INFORMATION
---------------------------------
There are 3 groups of distinct atoms

 Group   1 Type C   : 8s6p5d3f1g contracted to 8s6p4d3f1g pattern {11111111/111111/2111/111/1}
 Group   2 Type H   : 4s3p2d1f contracted to 4s3p2d1f pattern {1111/111/11/1}
 Group   3 Type O   : 8s6p5d3f1g contracted to 8s6p4d3f1g pattern {11111111/111111/2111/111/1}

Atom   0C    basis set group =>   1
Atom   1C    basis set group =>   1
Atom   2H    basis set group =>   2
Atom   3C    basis set group =>   1
Atom   4H    basis set group =>   2
Atom   5C    basis set group =>   1
Atom   6H    basis set group =>   2
Atom   7H    basis set group =>   2
Atom   8C    basis set group =>   1
Atom   9H    basis set group =>   2
Atom  10H    basis set group =>   2
Atom  11H    basis set group =>   2
Atom  12H    basis set group =>   2
Atom  13O    basis set group =>   3
Atom  14H    basis set group =>   2


           ************************************************************
           *        Program running with 8 parallel MPI-processes     *
           *              working on a common directory               *
           ************************************************************
------------------------------------------------------------------------------
                             ORCA STARTUP CALCULATIONS
                           -- RI-GTO INTEGRALS CHOSEN --
------------------------------------------------------------------------------
------------------------------------------------------------------------------
                   ___                                                        
                  /   \      - P O W E R E D   B Y -                         
                 /     \                                                     
                 |  |  |   _    _      __       _____    __    __             
                 |  |  |  | |  | |    /  \     |  _  \  |  |  /  |          
                  \  \/   | |  | |   /    \    | | | |  |  | /  /          
                 / \  \   | |__| |  /  /\  \   | |_| |  |  |/  /          
                |  |  |   |  __  | /  /__\  \  |    /   |      \           
                |  |  |   | |  | | |   __   |  |    \   |  |\   \          
                \     /   | |  | | |  |  |  |  | |\  \  |  | \   \       
                 \___/    |_|  |_| |__|  |__|  |_| \__\ |__|  \__/        
                                                                              
                      - O R C A' S   B I G   F R I E N D -                    
                                      &                                       
                       - I N T E G R A L  F E E D E R -                       
                                                                              
 v1 FN, 2020, v2 2021, v3 2022-2024                                           
------------------------------------------------------------------------------


----------------------
SHARK INTEGRAL PACKAGE
----------------------

Number of atoms                             ...     15
Number of basis functions                   ...    312
Number of shells                            ...    120
Maximum angular momentum                    ...      3
Integral batch strategy                     ... SHARK/LIBINT Hybrid
RI-J (if used) integral strategy            ... SPLIT-RIJ (Revised 2003 algorithm where possible)
Printlevel                                  ...      1
Contraction scheme used                     ... SEGMENTED contraction
Prescreening option                         ... SCHWARTZ
   Thresh                                   ... 2.500e-11
   Tcut                                     ... 2.500e-12
   Tpresel                                  ... 2.500e-12 
Coulomb Range Separation                    ... NOT USED
Exchange Range Separation                   ... NOT USED
Multipole approximations                    ... NOT USED
Finite Nucleus Model                        ... NOT USED
CABS basis                                  ... NOT available
Auxiliary Coulomb fitting basis             ... AVAILABLE
   # of basis functions in Aux-J            ...    393
   # of shells in Aux-J                     ...    135
   Maximum angular momentum in Aux-J        ...      4
Auxiliary J/K fitting basis                 ... NOT available
Auxiliary Correlation fitting basis         ... AVAILABLE
   # of basis functions in Aux-C            ...    726
   # of shells in Aux-C                     ...    222
   Maximum angular momentum in Aux-C        ...      4
Auxiliary 'external' fitting basis          ... NOT available

Checking pre-screening integrals            ... done (  0.0 sec) Dimension = 120
   => SHARK Basis and OBASIS are compatible. Storing Pre-screening
Shell pair information
Shell pair cut-off parameter TPreSel        ...   2.5e-12
Total number of shell pairs                 ...      7260
Shell pairs after pre-screening             ...      6634
Total number of primitive shell pairs       ...     18687
Primitive shell pairs kept                  ...     13729
          la=0 lb=0:   1492 shell pairs
          la=1 lb=0:   1887 shell pairs
          la=1 lb=1:    626 shell pairs
          la=2 lb=0:   1075 shell pairs
          la=2 lb=1:    691 shell pairs
          la=2 lb=2:    210 shell pairs
          la=3 lb=0:    316 shell pairs
          la=3 lb=1:    202 shell pairs
          la=3 lb=2:    116 shell pairs
          la=3 lb=3:     19 shell pairs

Checking whether 4 symmetric matrices of dimension 312 fit in memory
:Max Core in MB      =   7500.00
 MB in use           =     11.58
 MB left             =   7488.42
 MB needed           =      1.49
 Data fit in memory  = YES
Calculating RI/J V-Matrix + Cholesky decomp.... done (  0.2 sec)
Calculating RI/C V-Matrix + Cholesky decomp.... done (  0.1 sec)
Calculating Nuclear repulsion               ... done (  0.0 sec) ENN=    226.758015603772 Eh

Diagonalization of the overlap matrix:
Smallest eigenvalue                        ... 8.087e-05
Time for diagonalization                   ...    0.009 sec
Threshold for overlap eigenvalues          ... 1.000e-07
Number of eigenvalues below threshold      ... 0
Time for construction of square roots      ...    0.056 sec
Total time needed                          ...    0.076 sec

-------------------
DFT GRID GENERATION
-------------------

General Integration Accuracy     IntAcc      ... 4.388
Radial Grid Type                 RadialGrid  ... OptM3 with GC (2021)
Angular Grid (max. ang.)         AngularGrid ... 4 (Lebedev-302)
Angular grid pruning method      GridPruning ... 4 (adaptive)
Weight generation scheme         WeightScheme... mBecke (2022)
Basis function cutoff            BFCut       ... 1.0000e-11
Integration weight cutoff        WCut        ... 1.0000e-14
Partially contracted basis set               ... off
Rotationally invariant grid construction     ... off
Angular grids for H and He will be reduced by one unit

Total number of grid points                  ...    65133
Total number of batches                      ...     1026
Average number of points per batch           ...       63
Average number of grid points per atom       ...     4342

--------------------
COSX GRID GENERATION
--------------------

GRIDX 1
-------
General Integration Accuracy     IntAcc      ... 3.816
Radial Grid Type                 RadialGrid  ... OptM3 with GC (2021)
Angular Grid (max. ang.)         AngularGrid ... 1 (Lebedev-50)
Angular grid pruning method      GridPruning ... 4 (adaptive)
Weight generation scheme         WeightScheme... mBecke (2022)
Basis function cutoff            BFCut       ... 1.0000e-11
Integration weight cutoff        WCut        ... 1.0000e-14
Partially contracted basis set               ... on
Rotationally invariant grid construction     ... off
Angular grids for H and He will be reduced by one unit

Total number of grid points                  ...     8380
Total number of batches                      ...       75
Average number of points per batch           ...      111
Average number of grid points per atom       ...      559
UseSFitting                                  ... on

GRIDX 2
-------
General Integration Accuracy     IntAcc      ... 4.020
Radial Grid Type                 RadialGrid  ... OptM3 with GC (2021)
Angular Grid (max. ang.)         AngularGrid ... 2 (Lebedev-110)
Angular grid pruning method      GridPruning ... 4 (adaptive)
Weight generation scheme         WeightScheme... mBecke (2022)
Basis function cutoff            BFCut       ... 1.0000e-11
Integration weight cutoff        WCut        ... 1.0000e-14
Partially contracted basis set               ... on
Rotationally invariant grid construction     ... off
Angular grids for H and He will be reduced by one unit

Total number of grid points                  ...    17690
Total number of batches                      ...      148
Average number of points per batch           ...      119
Average number of grid points per atom       ...     1179
UseSFitting                                  ... on

GRIDX 3
-------
General Integration Accuracy     IntAcc      ... 4.338
Radial Grid Type                 RadialGrid  ... OptM3 with GC (2021)
Angular Grid (max. ang.)         AngularGrid ... 3 (Lebedev-194)
Angular grid pruning method      GridPruning ... 4 (adaptive)
Weight generation scheme         WeightScheme... mBecke (2022)
Basis function cutoff            BFCut       ... 1.0000e-11
Integration weight cutoff        WCut        ... 1.0000e-14
Partially contracted basis set               ... on
Rotationally invariant grid construction     ... off
Angular grids for H and He will be reduced by one unit

Total number of grid points                  ...    38762
Total number of batches                      ...      310
Average number of points per batch           ...      125
Average number of grid points per atom       ...     2584
UseSFitting                                  ... on
Grids setup in   2.1 sec
Initializing property integral containers    ... done (  0.1 sec)

SHARK setup successfully completed in   3.0 seconds

Maximum memory used throughout the entire STARTUP-calculation: 24.3 MB


           ************************************************************
           *        Program running with 8 parallel MPI-processes     *
           *              working on a common directory               *
           ************************************************************
-------------------------------------------------------------------------------
                                 ORCA GUESS
                   Start orbitals & Density for SCF / CASSCF
-------------------------------------------------------------------------------

------------
SCF SETTINGS
------------
Hamiltonian:
 Density Functional     Method          .... DFT(GTOs)
 Exchange Functional    Exchange        .... PBE
   PBE kappa parameter   XKappa         ....  0.804000
   PBE mue parameter    XMuePBE         ....  0.219520
 Correlation Functional Correlation     .... P86
 LDA part of GGA corr.  LDAOpt          .... VWN-5
 Gradients option       PostSCFGGA      .... off
 Hybrid DFT is turned on
   Fraction HF Exchange ScalHFX         ....  0.690000
   Scaling of DF-GGA-X  ScalDFX         ....  0.310000
   Scaling of DF-GGA-C  ScalDFC         ....  0.422400
   Scaling of DF-LDA-C  ScalLDAC        ....  0.422400
   Perturbative correction              ....  1.000000
 RI-approximation to the Coulomb term is turned on
   Number of AuxJ basis functions       .... 393
   RIJ-COSX (HFX calculated with COS-X)).... on


General Settings:
 Integral files         IntName         .... opt
 Hartree-Fock type      HFTyp           .... UHF
 Total Charge           Charge          ....    0
 Multiplicity           Mult            ....    2
 Number of Electrons    NEL             ....   47
 Basis Dimension        Dim             ....  312
 Nuclear Repulsion      ENuc            ....    226.7580156038 Eh

Convergence Acceleration:
 AO-DIIS                CNVDIIS         .... on
   Start iteration      DIISMaxIt       ....    12
   Startup error        DIISStart       ....  0.200000
   # of expansion vecs  DIISMaxEq       ....     5
   Bias factor          DIISBfac        ....   1.050
   Max. coefficient     DIISMaxC        ....  10.000
 MO-DIIS                CNVKDIIS        .... off
 Trust-Rad. Augm. Hess. CNVTRAH         .... auto
   Auto Start mean grad. ratio tolernc. ....  1.125000
   Auto Start start iteration           ....    50
   Auto Start num. interpolation iter.  ....    10
   Max. Number of Micro iterations      ....    24
   Max. Number of Macro iterations      .... Maxiter - #DIIS iter
   Number of Davidson start vectors     ....     2
   Converg. threshold    (grad. norm)   ....   1.000e-05
   Grad. Scal. Fac. for Micro threshold ....   0.100
   Minimum threshold for Micro iter.    ....   1.000e-02
   NR start threshold (gradient norm)   ....   1.000e-04
   Initial trust radius                 ....   0.400
   Minimum AH scaling param. (alpha)    ....   1.000
   Maximum AH scaling param. (alpha)    .... 1000.000
   Quad. conv. algorithm                .... NR
   White noise on init. David. guess    .... on
   Maximum white noise                  ....   0.010
   Pseudo random numbers                .... off
   Inactive MOs                         .... canonical
   Orbital update algorithm             .... Taylor
   Preconditioner                       .... Diag
   Full preconditioner red. dimension   ....   250
 SOSCF                 CNVSOSCF           .... on
   Start iteration     SOSCFMaxIt         ....   150
   Startup grad/error  SOSCFStart         ....  0.003300
   Hessian update      SOSCFHessUp        .... L-BFGS
   Autom. constraints  SOSCFAutoConstrain .... off
 Level Shifting         CNVShift        .... on
   Level shift para.    LevelShift      ....    0.2500
   Turn off err/grad.   ShiftErr        ....    0.0010
 Zerner damping         CNVZerner       .... off
 Static damping         CNVDamp         .... on
   Fraction old density DampFac         ....    0.7000
   Max. Damping (<1)    DampMax         ....    0.9800
   Min. Damping (>=0)   DampMin         ....    0.0000
   Turn off err/grad.   DampErr         ....    0.1000

SCF Procedure:
 Maximum # iterations   MaxIter         ....   125
 SCF integral mode      SCFMode         .... Direct
   Integral package                     .... SHARK and LIBINT hybrid scheme
 Reset frequency        DirectResetFreq ....    20
 Integral Threshold     Thresh          ....  2.500e-11 Eh
 Primitive CutOff       TCut            ....  2.500e-12 Eh

Convergence Tolerance:
 Convergence Check Mode ConvCheckMode   .... Total+1el-Energy
 Convergence forced     ConvForced      .... 0
 Energy Change          TolE            ....  1.000e-08 Eh
 1-El. energy change                    ....  1.000e-05 Eh
 Orbital Gradient       TolG            ....  1.000e-05
 Orbital Rotation angle TolX            ....  1.000e-05
 DIIS Error             TolErr          ....  5.000e-07

------------------------------
INITIAL GUESS: MODEL POTENTIAL
------------------------------
Loading Hartree-Fock densities                     ... done
Calculating cut-offs                               ... done
Initializing the effective Hamiltonian             ... done
Setting up the integral package (SHARK)            ... done
Starting the Coulomb interaction                   ... done (   0.1 sec)
Making the grid                                    ... done (   0.3 sec)
Mapping shells                                     ... done
Starting the XC term evaluation                    ... done (   0.0 sec)
  promolecular density results
     # of electrons  =     46.993875961
     EX              =    -36.327997516
     EC              =      0.019636390
     EX+EC           =    -36.308361126
Transforming the Hamiltonian                       ... done (   0.1 sec)
Diagonalizing the Hamiltonian                      ... done (   0.0 sec)
Back transforming the eigenvectors                 ... done (   0.1 sec)
Now organizing SCF variables                       ... done
                      ------------------
                      INITIAL GUESS DONE (   0.7 sec)
                      ------------------
             **** ENERGY FILE WAS UPDATED (opt.en.tmp) ****
Finished Guess after   3.6 sec
Maximum memory used throughout the entire GUESS-calculation: 17.5 MB


           ************************************************************
           *        Program running with 8 parallel MPI-processes     *
           *              working on a common directory               *
           ************************************************************

-------------------------------------------------------------------------------------------
                                      ORCA LEAN-SCF
                              memory conserving SCF solver
-------------------------------------------------------------------------------------------

----------------------------------------D-I-I-S--------------------------------------------
Iteration    Energy (Eh)           Delta-E    RMSDP     MaxDP     DIISErr   Damp  Time(sec)
-------------------------------------------------------------------------------------------
               ***  Starting incremental Fock matrix formation  ***
    1    -269.8717430107451491     0.00e+00  1.50e-03  1.98e-02  1.26e-01  0.700   2.8
    2    -269.9482178980596245    -7.65e-02  1.19e-03  1.94e-02  7.40e-02  0.700   2.4
                               ***Turning on AO-DIIS***
    3    -269.9894537205022971    -4.12e-02  5.70e-04  8.18e-03  4.41e-02  0.700   2.2
    4    -270.0152712772481891    -2.58e-02  1.37e-03  2.07e-02  3.54e-02  0.000   2.2
    5    -270.0756609792538256    -6.04e-02  4.16e-04  6.76e-03  1.42e-02  0.000   3.1
    6    -270.0773691991803389    -1.71e-03  3.82e-04  6.74e-03  8.11e-03  0.000   2.4
    7    -270.0784821720347963    -1.11e-03  2.55e-04  4.33e-03  5.85e-03  0.000   2.9
                              *** Initializing SOSCF ***
---------------------------------------S-O-S-C-F--------------------------------------
Iteration    Energy (Eh)           Delta-E    RMSDP     MaxDP     MaxGrad    Time(sec)
--------------------------------------------------------------------------------------
    8    -270.0791376679902669    -6.55e-04  2.21e-04  3.70e-03  3.26e-03     3.2
               *** Restarting incremental Fock matrix formation ***
    9    -270.0795487120689131    -4.11e-04  1.22e-04  1.39e-03  4.74e-03     2.6
   10    -270.0797398267678773    -1.91e-04  3.67e-04  5.26e-03  2.78e-03     2.7
   11    -270.0799248350128892    -1.85e-04  7.91e-05  1.11e-03  1.39e-03     2.7
   12    -270.0799678599053095    -4.30e-05  6.60e-05  1.32e-03  1.09e-03     2.9
   13    -270.0799959970075861    -2.81e-05  1.16e-04  2.91e-03  8.41e-04     2.7
   14    -270.0800277276200632    -3.17e-05  6.58e-05  1.59e-03  6.00e-04     2.8
   15    -270.0800389315232906    -1.12e-05  3.33e-05  5.93e-04  2.91e-04     2.6
   16    -270.0800430119555813    -4.08e-06  1.03e-05  1.70e-04  1.35e-04     2.6
   17    -270.0800436110527016    -5.99e-07  4.30e-06  6.67e-05  4.91e-05     2.8
   18    -270.0800436970343981    -8.60e-08  2.61e-06  5.29e-05  2.87e-05     2.7
   19    -270.0800437280834103    -3.10e-08  1.90e-06  3.18e-05  1.75e-05     2.6
   20    -270.0800437405504226    -1.25e-08  5.21e-07  6.82e-06  7.12e-06     2.7
   21    -270.0800437409421875    -3.92e-10  3.31e-07  3.58e-06  2.21e-06     2.3
                 **** Energy Check signals convergence ****

               *****************************************************
               *                     SUCCESS                       *
               *           SCF CONVERGED AFTER  21 CYCLES          *
               *****************************************************

Recomputing exchange energy using gridx3       ... done (    1.479 sec)
Old exchange energy                            :    -25.766210690 Eh
New exchange energy                            :    -25.766255419 Eh
Exchange energy change after final integration :     -0.000044729 Eh
Total energy after final integration           :   -270.080088467 Eh
             **** ENERGY FILE WAS UPDATED (opt.en.tmp) ****

----------------
TOTAL SCF ENERGY
----------------

Total Energy       :       -270.08008846667605 Eh           -7349.25284 eV

Components:
Nuclear Repulsion  :        226.75801560377207 Eh            6170.39930 eV
Electronic Energy  :       -496.83805934193339 Eh          -13519.65092 eV
One Electron Energy:       -814.99469867668233 Eh          -22177.13321 eV
Two Electron Energy:        318.15663933474895 Eh            8657.48229 eV

Virial components:
Potential Energy   :       -539.48236541471465 Eh          -14680.06148 eV
Kinetic Energy     :        269.40227694803855 Eh            7330.80865 eV
Virial Ratio       :          2.00251598288744

DFT components:
N(Alpha)           :       24.000017902213 electrons
N(Beta)            :       23.000011923308 electrons
N(Total)           :       47.000029825521 electrons
E(X)               :      -11.522637793369 Eh       
E(C)               :       -0.712603976178 Eh       
E(XC)              :      -12.235241769547 Eh       

---------------
SCF CONVERGENCE
---------------

  Last Energy change         ...    3.9176e-10  Tolerance :   1.0000e-08
  Last MAX-Density change    ...    3.5782e-06  Tolerance :   1.0000e-07
  Last RMS-Density change    ...    3.3064e-07  Tolerance :   5.0000e-09
  Last DIIS Error            ...    3.2552e-03  Tolerance :   5.0000e-07
  Last Orbital Gradient      ...    2.2070e-06  Tolerance :   1.0000e-05
  Last Orbital Rotation      ...    1.1414e-05  Tolerance :   1.0000e-05


----------------------
UHF SPIN CONTAMINATION
----------------------

Warning: in a DFT calculation there is little theoretical justification to 
         calculate <S**2> as in Hartree-Fock theory. We will do it anyways
         but you should keep in mind that the values have only limited relevance

Expectation value of <S**2>     :     0.791408
Ideal value S*(S+1) for S=0.5   :     0.750000
Deviation                       :     0.041408

----------------
ORBITAL ENERGIES
----------------
                 SPIN UP ORBITALS
  NO   OCC          E(Eh)            E(eV) 
   0   1.0000     -20.042381      -545.3809 
   1   1.0000     -10.831042      -294.7276 
   2   1.0000     -10.818160      -294.3771 
   3   1.0000     -10.818025      -294.3734 
   4   1.0000     -10.814824      -294.2863 
   5   1.0000     -10.814718      -294.2834 
   6   1.0000      -1.232954       -33.5504 
   7   1.0000      -1.035297       -28.1719 
   8   1.0000      -0.878604       -23.9080 
   9   1.0000      -0.871611       -23.7177 
  10   1.0000      -0.716635       -19.5006 
  11   1.0000      -0.683642       -18.6028 
  12   1.0000      -0.636066       -17.3082 
  13   1.0000      -0.583428       -15.8759 
  14   1.0000      -0.580105       -15.7855 
  15   1.0000      -0.538149       -14.6438 
  16   1.0000      -0.503359       -13.6971 
  17   1.0000      -0.482435       -13.1277 
  18   1.0000      -0.456364       -12.4183 
  19   1.0000      -0.443103       -12.0574 
  20   1.0000      -0.439229       -11.9520 
  21   1.0000      -0.437227       -11.8975 
  22   1.0000      -0.375296       -10.2123 
  23   1.0000      -0.320288        -8.7155 
  24   0.0000       0.094490         2.5712 
  25   0.0000       0.097062         2.6412 
  26   0.0000       0.113751         3.0953 
  27   0.0000       0.136080         3.7029 
  28   0.0000       0.141103         3.8396 
  29   0.0000       0.154818         4.2128 
  30   0.0000       0.164959         4.4888 
  31   0.0000       0.186725         5.0810 
  32   0.0000       0.197669         5.3788 
  33   0.0000       0.231529         6.3002 
  34   0.0000       0.240939         6.5563 

                 SPIN DOWN ORBITALS
  NO   OCC          E(Eh)            E(eV) 
   0   1.0000     -20.015593      -544.6520 
   1   1.0000     -10.818092      -294.3753 
   2   1.0000     -10.817847      -294.3686 
   3   1.0000     -10.816906      -294.3430 
   4   1.0000     -10.816222      -294.3244 
   5   1.0000     -10.814253      -294.2708 
   6   1.0000      -1.146858       -31.2076 
   7   1.0000      -1.026295       -27.9269 
   8   1.0000      -0.874385       -23.7932 
   9   1.0000      -0.859595       -23.3908 
  10   1.0000      -0.713184       -19.4067 
  11   1.0000      -0.644828       -17.5467 
  12   1.0000      -0.605323       -16.4717 
  13   1.0000      -0.580701       -15.8017 
  14   1.0000      -0.553998       -15.0751 
  15   1.0000      -0.502743       -13.6803 
  16   1.0000      -0.480377       -13.0717 
  17   1.0000      -0.444067       -12.0837 
  18   1.0000      -0.438664       -11.9366 
  19   1.0000      -0.438192       -11.9238 
  20   1.0000      -0.429256       -11.6807 
  21   1.0000      -0.422463       -11.4958 
  22   1.0000      -0.315413        -8.5828 
  23   0.0000      -0.015162        -0.4126 
  24   0.0000       0.096157         2.6166 
  25   0.0000       0.104401         2.8409 
  26   0.0000       0.120251         3.2722 
  27   0.0000       0.136718         3.7203 
  28   0.0000       0.142171         3.8687 
  29   0.0000       0.155606         4.2343 
  30   0.0000       0.165719         4.5094 
  31   0.0000       0.187059         5.0901 
  32   0.0000       0.198370         5.3979 
  33   0.0000       0.235204         6.4002 
*Only the first 10 virtual orbitals were printed.

                    ********************************
                    * MULLIKEN POPULATION ANALYSIS *
                    ********************************

--------------------------------------------
MULLIKEN ATOMIC CHARGES AND SPIN POPULATIONS
--------------------------------------------
   0 C :   -0.174332   -0.182234
   1 C :   -0.196308    0.553410
   2 H :    0.113401    0.015902
   3 C :   -0.058088   -0.011019
   4 H :    0.221724   -0.117719
   5 C :   -0.151788    0.018387
   6 H :    0.078704    0.004357
   7 H :    0.067404    0.006660
   8 C :   -0.062205    0.045468
   9 H :    0.075418   -0.000603
  10 H :    0.075905    0.001776
  11 H :    0.072913   -0.005526
  12 H :    0.065881   -0.006662
  13 O :   -0.352207    0.698835
  14 H :    0.223578   -0.021034
Sum of atomic charges         :    0.0000000
Sum of atomic spin populations:    1.0000000

-----------------------------------------------------
MULLIKEN REDUCED ORBITAL CHARGES AND SPIN POPULATIONS
-----------------------------------------------------
CHARGE
  0 C s       :     3.168753  s :     3.168753
      pz      :     0.956291  p :     2.885861
      px      :     0.923330
      py      :     1.006240
      dz2     :     0.004746  d :     0.111815
      dxz     :     0.016370
      dyz     :     0.014779
      dx2y2   :     0.041587
      dxy     :     0.034332
      f0      :     0.001270  f :     0.007904
      f+1     :     0.000781
      f-1     :     0.000682
      f+2     :     0.000782
      f-2     :     0.000654
      f+3     :     0.001423
      f-3     :     0.002311

  1 C s       :     3.223474  s :     3.223474
      pz      :     0.960283  p :     2.865080
      px      :     0.944477
      py      :     0.960320
      dz2     :     0.002099  d :     0.099999
      dxz     :     0.007051
      dyz     :     0.025666
      dx2y2   :     0.033521
      dxy     :     0.031663
      f0      :     0.001282  f :     0.007756
      f+1     :     0.000650
      f-1     :     0.000711
      f+2     :     0.000281
      f-2     :     0.001168
      f+3     :     0.001249
      f-3     :     0.002416

  2 H s       :     0.847393  s :     0.847393
      pz      :     0.010544  p :     0.037264
      px      :     0.011011
      py      :     0.015709
      dz2     :     0.000138  d :     0.001942
      dxz     :     0.000049
      dyz     :     0.000542
      dx2y2   :     0.000613
      dxy     :     0.000601

  3 C s       :     3.078294  s :     3.078294
      pz      :     1.028650  p :     2.861836
      px      :     0.886102
      py      :     0.947084
      dz2     :     0.019219  d :     0.111889
      dxz     :     0.014649
      dyz     :     0.031491
      dx2y2   :     0.022541
      dxy     :     0.023989
      f0      :     0.000769  f :     0.006068
      f+1     :     0.000529
      f-1     :     0.000768
      f+2     :     0.000623
      f-2     :     0.000654
      f+3     :     0.001395
      f-3     :     0.001330

  4 H s       :     0.707223  s :     0.707223
      pz      :     0.016748  p :     0.065786
      px      :     0.031846
      py      :     0.017192
      dz2     :     0.000752  d :     0.005268
      dxz     :     0.000835
      dyz     :     0.000082
      dx2y2   :     0.002231
      dxy     :     0.001368

  5 C s       :     3.138019  s :     3.138019
      pz      :     1.057886  p :     2.904950
      px      :     0.942974
      py      :     0.904090
      dz2     :     0.020206  d :     0.102804
      dxz     :     0.020180
      dyz     :     0.016935
      dx2y2   :     0.021099
      dxy     :     0.024384
      f0      :     0.000810  f :     0.006015
      f+1     :     0.000576
      f-1     :     0.000547
      f+2     :     0.000712
      f-2     :     0.000554
      f+3     :     0.001404
      f-3     :     0.001413

  6 H s       :     0.878861  s :     0.878861
      pz      :     0.013086  p :     0.040330
      px      :     0.009806
      py      :     0.017438
      dz2     :     0.000570  d :     0.002105
      dxz     :     0.000269
      dyz     :     0.000399
      dx2y2   :     0.000395
      dxy     :     0.000472

  7 H s       :     0.890457  s :     0.890457
      pz      :     0.019175  p :     0.040035
      px      :     0.009313
      py      :     0.011546
      dz2     :     0.000588  d :     0.002104
      dxz     :     0.000621
      dyz     :     0.000654
      dx2y2   :     0.000110
      dxy     :     0.000131

  8 C s       :     3.083297  s :     3.083297
      pz      :     1.023336  p :     2.860677
      px      :     0.908902
      py      :     0.928439
      dz2     :     0.019529  d :     0.112155
      dxz     :     0.025944
      dyz     :     0.020133
      dx2y2   :     0.022292
      dxy     :     0.024257
      f0      :     0.000784  f :     0.006077
      f+1     :     0.000642
      f-1     :     0.000633
      f+2     :     0.000906
      f-2     :     0.000355
      f+3     :     0.001407
      f-3     :     0.001351

  9 H s       :     0.883427  s :     0.883427
      pz      :     0.019075  p :     0.039044
      px      :     0.010429
      py      :     0.009541
      dz2     :     0.000554  d :     0.002111
      dxz     :     0.000686
      dyz     :     0.000688
      dx2y2   :     0.000106
      dxy     :     0.000077

 10 H s       :     0.882799  s :     0.882799
      pz      :     0.012456  p :     0.039234
      px      :     0.015034
      py      :     0.011744
      dz2     :     0.000516  d :     0.002062
      dxz     :     0.000354
      dyz     :     0.000273
      dx2y2   :     0.000556
      dxy     :     0.000362

 11 H s       :     0.885312  s :     0.885312
      pz      :     0.012786  p :     0.039690
      px      :     0.014014
      py      :     0.012890
      dz2     :     0.000556  d :     0.002085
      dxz     :     0.000333
      dyz     :     0.000324
      dx2y2   :     0.000552
      dxy     :     0.000319

 12 H s       :     0.892538  s :     0.892538
      pz      :     0.019117  p :     0.039496
      px      :     0.010135
      py      :     0.010244
      dz2     :     0.000580  d :     0.002086
      dxz     :     0.000646
      dyz     :     0.000636
      dx2y2   :     0.000144
      dxy     :     0.000080

 13 O s       :     3.856854  s :     3.856854
      pz      :     1.431472  p :     4.479527
      px      :     1.192111
      py      :     1.855944
      dz2     :     0.006513  d :     0.015332
      dxz     :     0.000657
      dyz     :     0.003138
      dx2y2   :     0.004626
      dxy     :     0.000397
      f0      :     0.000058  f :     0.000495
      f+1     :     0.000020
      f-1     :     0.000188
      f+2     :     0.000032
      f-2     :     0.000016
      f+3     :     0.000140
      f-3     :     0.000041

 14 H s       :     0.686518  s :     0.686518
      pz      :     0.027863  p :     0.081564
      px      :     0.018637
      py      :     0.035064
      dz2     :     0.003266  d :     0.008340
      dxz     :     0.001436
      dyz     :     0.002925
      dx2y2   :     0.000481
      dxy     :     0.000233


SPIN
  0 C s       :    -0.025579  s :    -0.025579
      pz      :    -0.131613  p :    -0.166885
      px      :    -0.017908
      py      :    -0.017364
      dz2     :     0.000461  d :     0.009176
      dxz     :     0.000231
      dyz     :     0.001506
      dx2y2   :     0.005647
      dxy     :     0.001331
      f0      :     0.000181  f :     0.001054
      f+1     :     0.000082
      f-1     :     0.000108
      f+2     :     0.000040
      f-2     :     0.000100
      f+3     :     0.000052
      f-3     :     0.000489

  1 C s       :     0.098801  s :     0.098801
      pz      :     0.138793  p :     0.456491
      px      :     0.293286
      py      :     0.024411
      dz2     :    -0.000223  d :    -0.001661
      dxz     :    -0.001698
      dyz     :    -0.001422
      dx2y2   :     0.001706
      dxy     :    -0.000023
      f0      :     0.000009  f :    -0.000221
      f+1     :     0.000115
      f-1     :    -0.000007
      f+2     :    -0.000130
      f-2     :    -0.000080
      f+3     :    -0.000089
      f-3     :    -0.000038

  2 H s       :     0.017186  s :     0.017186
      pz      :    -0.001387  p :    -0.001188
      px      :    -0.000053
      py      :     0.000252
      dz2     :     0.000004  d :    -0.000096
      dxz     :    -0.000013
      dyz     :    -0.000076
      dx2y2   :    -0.000004
      dxy     :    -0.000007

  3 C s       :    -0.003919  s :    -0.003919
      pz      :    -0.007974  p :    -0.014177
      px      :    -0.002133
      py      :    -0.004070
      dz2     :     0.000639  d :     0.006536
      dxz     :    -0.000072
      dyz     :     0.002523
      dx2y2   :     0.003227
      dxy     :     0.000218
      f0      :     0.000049  f :     0.000542
      f+1     :     0.000016
      f-1     :     0.000035
      f+2     :     0.000040
      f-2     :     0.000076
      f+3     :     0.000089
      f-3     :     0.000237

  4 H s       :    -0.127930  s :    -0.127930
      pz      :    -0.000070  p :     0.009351
      px      :     0.009865
      py      :    -0.000444
      dz2     :     0.000172  d :     0.000860
      dxz     :     0.000113
      dyz     :    -0.000003
      dx2y2   :     0.000558
      dxy     :     0.000021

  5 C s       :     0.002807  s :     0.002807
      pz      :     0.001446  p :     0.014760
      px      :     0.013151
      py      :     0.000162
      dz2     :    -0.000197  d :     0.000732
      dxz     :     0.000045
      dyz     :     0.000166
      dx2y2   :     0.000389
      dxy     :     0.000329
      f0      :    -0.000001  f :     0.000088
      f+1     :    -0.000003
      f-1     :     0.000004
      f+2     :     0.000000
      f-2     :     0.000003
      f+3     :     0.000049
      f-3     :     0.000037

  6 H s       :     0.004276  s :     0.004276
      pz      :    -0.000056  p :     0.000063
      px      :     0.000032
      py      :     0.000087
      dz2     :     0.000002  d :     0.000018
      dxz     :     0.000001
      dyz     :     0.000004
      dx2y2   :     0.000009
      dxy     :     0.000003

  7 H s       :     0.006522  s :     0.006522
      pz      :     0.000052  p :     0.000120
      px      :    -0.000020
      py      :     0.000088
      dz2     :     0.000003  d :     0.000018
      dxz     :     0.000004
      dyz     :     0.000007
      dx2y2   :     0.000003
      dxy     :     0.000001

  8 C s       :     0.008394  s :     0.008394
      pz      :     0.009468  p :     0.039674
      px      :     0.027353
      py      :     0.002853
      dz2     :    -0.000506  d :    -0.002533
      dxz     :    -0.002702
      dyz     :     0.000176
      dx2y2   :     0.000265
      dxy     :     0.000234
      f0      :    -0.000049  f :    -0.000066
      f+1     :    -0.000011
      f-1     :     0.000002
      f+2     :    -0.000051
      f-2     :    -0.000025
      f+3     :     0.000007
      f-3     :     0.000061

  9 H s       :    -0.000761  s :    -0.000761
      pz      :     0.000034  p :     0.000147
      px      :     0.000126
      py      :    -0.000014
      dz2     :     0.000001  d :     0.000011
      dxz     :     0.000010
      dyz     :     0.000000
      dx2y2   :    -0.000000
      dxy     :    -0.000000

 10 H s       :     0.001457  s :     0.001457
      pz      :     0.000019  p :     0.000299
      px      :     0.000314
      py      :    -0.000034
      dz2     :     0.000007  d :     0.000020
      dxz     :    -0.000000
      dyz     :     0.000005
      dx2y2   :     0.000011
      dxy     :    -0.000002

 11 H s       :    -0.005810  s :    -0.005810
      pz      :     0.000033  p :     0.000265
      px      :     0.000329
      py      :    -0.000098
      dz2     :     0.000007  d :     0.000019
      dxz     :     0.000001
      dyz     :     0.000002
      dx2y2   :     0.000004
      dxy     :     0.000004

 12 H s       :    -0.006833  s :    -0.006833
      pz      :    -0.000030  p :     0.000160
      px      :     0.000243
      py      :    -0.000054
      dz2     :    -0.000002  d :     0.000012
      dxz     :     0.000015
      dyz     :    -0.000001
      dx2y2   :    -0.000002
      dxy     :     0.000001

 13 O s       :     0.015000  s :     0.015000
      pz      :     0.017538  p :     0.684753
      px      :     0.661498
      py      :     0.005717
      dz2     :    -0.000506  d :    -0.000897
      dxz     :     0.000449
      dyz     :     0.000054
      dx2y2   :    -0.000997
      dxy     :     0.000103
      f0      :    -0.000101  f :    -0.000022
      f+1     :     0.000017
      f-1     :    -0.000026
      f+2     :    -0.000014
      f-2     :     0.000009
      f+3     :     0.000055
      f-3     :     0.000038

 14 H s       :    -0.025040  s :    -0.025040
      pz      :    -0.000462  p :     0.003173
      px      :     0.005111
      py      :    -0.001477
      dz2     :    -0.000018  d :     0.000834
      dxz     :     0.000752
      dyz     :     0.000016
      dx2y2   :    -0.000040
      dxy     :     0.000124



                     *******************************
                     * LOEWDIN POPULATION ANALYSIS *
                     *******************************

-------------------------------------------
LOEWDIN ATOMIC CHARGES AND SPIN POPULATIONS
-------------------------------------------
   0 C :   -0.015827   -0.062447
   1 C :    0.024377    0.321419
   2 H :    0.005850   -0.004435
   3 C :   -0.015706    0.025875
   4 H :   -0.134196    0.102598
   5 C :    0.007886    0.013889
   6 H :    0.015299    0.001551
   7 H :    0.016734    0.003281
   8 C :   -0.013051    0.009594
   9 H :    0.015484    0.000442
  10 H :    0.005953    0.002177
  11 H :    0.011380   -0.001340
  12 H :    0.014424   -0.002028
  13 O :    0.203773    0.562416
  14 H :   -0.142378    0.027008

----------------------------------------------------
LOEWDIN REDUCED ORBITAL CHARGES AND SPIN POPULATIONS
----------------------------------------------------
CHARGE
  0 C s       :     2.736036  s :     2.736036
      pz      :     0.845155  p :     2.844780
      px      :     0.965817
      py      :     1.033809
      dz2     :     0.028432  d :     0.391192
      dxz     :     0.060803
      dyz     :     0.034638
      dx2y2   :     0.140542
      dxy     :     0.126777
      f0      :     0.002522  f :     0.043819
      f+1     :     0.003455
      f-1     :     0.003642
      f+2     :     0.004384
      f-2     :     0.004906
      f+3     :     0.008949
      f-3     :     0.015960

  1 C s       :     2.758783  s :     2.758783
      pz      :     0.867097  p :     2.776468
      px      :     0.873479
      py      :     1.035892
      dz2     :     0.031115  d :     0.395970
      dxz     :     0.018273
      dyz     :     0.078834
      dx2y2   :     0.152803
      dxy     :     0.114945
      f0      :     0.002734  f :     0.044402
      f+1     :     0.003123
      f-1     :     0.003977
      f+2     :     0.001554
      f-2     :     0.007317
      f+3     :     0.008297
      f-3     :     0.017400

  2 H s       :     0.815707  s :     0.815707
      pz      :     0.041212  p :     0.150942
      px      :     0.043542
      py      :     0.066188
      dz2     :     0.002564  d :     0.027502
      dxz     :     0.000991
      dyz     :     0.007133
      dx2y2   :     0.008127
      dxy     :     0.008686

  3 C s       :     2.691323  s :     2.691323
      pz      :     1.001923  p :     2.876767
      px      :     0.920081
      py      :     0.954764
      dz2     :     0.069023  d :     0.405126
      dxz     :     0.052775
      dyz     :     0.097942
      dx2y2   :     0.087577
      dxy     :     0.097809
      f0      :     0.004760  f :     0.042489
      f+1     :     0.004641
      f-1     :     0.004255
      f+2     :     0.005373
      f-2     :     0.005544
      f+3     :     0.008692
      f-3     :     0.009224

  4 H s       :     0.686842  s :     0.686842
      pz      :     0.049741  p :     0.396766
      px      :     0.292037
      py      :     0.054987
      dz2     :     0.006847  d :     0.050588
      dxz     :     0.011685
      dyz     :     0.000369
      dx2y2   :     0.018696
      dxy     :     0.012991

  5 C s       :     2.694940  s :     2.694940
      pz      :     1.007007  p :     2.865218
      px      :     0.933906
      py      :     0.924306
      dz2     :     0.075354  d :     0.391166
      dxz     :     0.070570
      dyz     :     0.058686
      dx2y2   :     0.092282
      dxy     :     0.094274
      f0      :     0.005161  f :     0.040790
      f+1     :     0.003785
      f-1     :     0.004308
      f+2     :     0.005375
      f-2     :     0.005282
      f+3     :     0.009582
      f-3     :     0.007298

  6 H s       :     0.808975  s :     0.808975
      pz      :     0.052373  p :     0.147059
      px      :     0.039859
      py      :     0.054827
      dz2     :     0.007497  d :     0.028667
      dxz     :     0.003406
      dyz     :     0.007030
      dx2y2   :     0.005131
      dxy     :     0.005603

  7 H s       :     0.807001  s :     0.807001
      pz      :     0.067289  p :     0.147798
      px      :     0.038446
      py      :     0.042064
      dz2     :     0.009529  d :     0.028467
      dxz     :     0.007434
      dyz     :     0.008778
      dx2y2   :     0.001249
      dxy     :     0.001478

  8 C s       :     2.691401  s :     2.691401
      pz      :     1.001217  p :     2.874603
      px      :     0.939777
      py      :     0.933610
      dz2     :     0.069750  d :     0.405000
      dxz     :     0.078846
      dyz     :     0.069560
      dx2y2   :     0.094818
      dxy     :     0.092027
      f0      :     0.004818  f :     0.042047
      f+1     :     0.004307
      f-1     :     0.004464
      f+2     :     0.006244
      f-2     :     0.004618
      f+3     :     0.009076
      f-3     :     0.008520

  9 H s       :     0.806918  s :     0.806918
      pz      :     0.068849  p :     0.148484
      px      :     0.040395
      py      :     0.039241
      dz2     :     0.009678  d :     0.029114
      dxz     :     0.009053
      dyz     :     0.008479
      dx2y2   :     0.001151
      dxy     :     0.000753

 10 H s       :     0.815871  s :     0.815871
      pz      :     0.049980  p :     0.149444
      px      :     0.054183
      py      :     0.045280
      dz2     :     0.007137  d :     0.028733
      dxz     :     0.005968
      dyz     :     0.003932
      dx2y2   :     0.006247
      dxy     :     0.005448

 11 H s       :     0.812035  s :     0.812035
      pz      :     0.051753  p :     0.147982
      px      :     0.049010
      py      :     0.047220
      dz2     :     0.007408  d :     0.028604
      dxz     :     0.005307
      dyz     :     0.004937
      dx2y2   :     0.006130
      dxy     :     0.004822

 12 H s       :     0.808450  s :     0.808450
      pz      :     0.067340  p :     0.148680
      px      :     0.041209
      py      :     0.040131
      dz2     :     0.009468  d :     0.028446
      dxz     :     0.008310
      dyz     :     0.008092
      dx2y2   :     0.001676
      dxy     :     0.000901

 13 O s       :     3.407385  s :     3.407385
      pz      :     1.488086  p :     4.353299
      px      :     1.118883
      py      :     1.746331
      dz2     :     0.014034  d :     0.033439
      dxz     :     0.001007
      dyz     :     0.005905
      dx2y2   :     0.012368
      dxy     :     0.000124
      f0      :     0.000508  f :     0.002104
      f+1     :     0.000403
      f-1     :     0.000576
      f+2     :     0.000155
      f-2     :     0.000044
      f+3     :     0.000395
      f-3     :     0.000024

 14 H s       :     0.700064  s :     0.700064
      pz      :     0.164775  p :     0.347891
      px      :     0.061747
      py      :     0.121370
      dz2     :     0.034528  d :     0.094423
      dxz     :     0.019805
      dyz     :     0.031627
      dx2y2   :     0.005279
      dxy     :     0.003185


SPIN
  0 C s       :    -0.003691  s :    -0.003691
      pz      :    -0.089831  p :    -0.098305
      px      :    -0.007552
      py      :    -0.000922
      dz2     :     0.001577  d :     0.033691
      dxz     :     0.002908
      dyz     :     0.006635
      dx2y2   :     0.016509
      dxy     :     0.006061
      f0      :     0.000531  f :     0.005859
      f+1     :     0.000164
      f-1     :     0.000200
      f+2     :     0.000276
      f-2     :     0.000834
      f+3     :     0.000237
      f-3     :     0.003617

  1 C s       :     0.033913  s :     0.033913
      pz      :     0.096398  p :     0.309639
      px      :     0.204191
      py      :     0.009051
      dz2     :    -0.000424  d :    -0.020293
      dxz     :    -0.002760
      dyz     :    -0.006810
      dx2y2   :    -0.008452
      dxy     :    -0.001847
      f0      :    -0.000463  f :    -0.001841
      f+1     :    -0.000300
      f-1     :    -0.000049
      f+2     :    -0.000303
      f-2     :    -0.000724
      f+3     :     0.000170
      f-3     :    -0.000171

  2 H s       :     0.005919  s :     0.005919
      pz      :    -0.006634  p :    -0.008719
      px      :    -0.000695
      py      :    -0.001390
      dz2     :    -0.000019  d :    -0.001635
      dxz     :    -0.000176
      dyz     :    -0.001132
      dx2y2   :    -0.000133
      dxy     :    -0.000175

  3 C s       :     0.000622  s :     0.000622
      pz      :    -0.000586  p :     0.001742
      px      :     0.001995
      py      :     0.000333
      dz2     :     0.002436  d :     0.020303
      dxz     :     0.001346
      dyz     :     0.006348
      dx2y2   :     0.008646
      dxy     :     0.001528
      f0      :     0.000297  f :     0.003208
      f+1     :     0.000103
      f-1     :     0.000127
      f+2     :     0.000193
      f-2     :     0.000483
      f+3     :     0.000303
      f-3     :     0.001703

  4 H s       :    -0.047733  s :    -0.047733
      pz      :     0.004350  p :     0.139630
      px      :     0.135922
      py      :    -0.000643
      dz2     :     0.001622  d :     0.010702
      dxz     :     0.003198
      dyz     :     0.000010
      dx2y2   :     0.005416
      dxy     :     0.000456

  5 C s       :     0.001782  s :     0.001782
      pz      :     0.000594  p :     0.009294
      px      :     0.008846
      py      :    -0.000145
      dz2     :    -0.000133  d :     0.002376
      dxz     :    -0.000041
      dyz     :     0.000237
      dx2y2   :     0.002050
      dxy     :     0.000263
      f0      :     0.000001  f :     0.000437
      f+1     :     0.000012
      f-1     :     0.000011
      f+2     :    -0.000002
      f-2     :     0.000009
      f+3     :     0.000336
      f-3     :     0.000070

  6 H s       :     0.002058  s :     0.002058
      pz      :    -0.000067  p :    -0.000517
      px      :    -0.000113
      py      :    -0.000337
      dz2     :    -0.000035  d :     0.000010
      dxz     :    -0.000002
      dyz     :     0.000022
      dx2y2   :     0.000057
      dxy     :    -0.000032

  7 H s       :     0.003310  s :     0.003310
      pz      :     0.000056  p :    -0.000073
      px      :     0.000099
      py      :    -0.000229
      dz2     :    -0.000004  d :     0.000044
      dxz     :     0.000031
      dyz     :    -0.000014
      dx2y2   :     0.000038
      dxy     :    -0.000007

  8 C s       :     0.002892  s :     0.002892
      pz      :     0.002066  p :     0.017003
      px      :     0.014010
      py      :     0.000927
      dz2     :    -0.001606  d :    -0.009636
      dxz     :    -0.007961
      dyz     :    -0.000098
      dx2y2   :     0.000228
      dxy     :    -0.000199
      f0      :    -0.000253  f :    -0.000665
      f+1     :    -0.000094
      f-1     :     0.000004
      f+2     :    -0.000363
      f-2     :    -0.000147
      f+3     :    -0.000008
      f-3     :     0.000195

  9 H s       :    -0.000235  s :    -0.000235
      pz      :     0.000078  p :     0.000546
      px      :     0.000532
      py      :    -0.000064
      dz2     :     0.000005  d :     0.000132
      dxz     :     0.000134
      dyz     :    -0.000008
      dx2y2   :    -0.000001
      dxy     :     0.000002

 10 H s       :     0.001024  s :     0.001024
      pz      :     0.000053  p :     0.001013
      px      :     0.000928
      py      :     0.000033
      dz2     :     0.000048  d :     0.000140
      dxz     :    -0.000002
      dyz     :     0.000023
      dx2y2   :     0.000079
      dxy     :    -0.000008

 11 H s       :    -0.002823  s :    -0.002823
      pz      :     0.000173  p :     0.001216
      px      :     0.001039
      py      :     0.000004
      dz2     :     0.000082  d :     0.000268
      dxz     :     0.000025
      dyz     :     0.000039
      dx2y2   :     0.000078
      dxy     :     0.000043

 12 H s       :    -0.003493  s :    -0.003493
      pz      :     0.000112  p :     0.001210
      px      :     0.001101
      py      :    -0.000003
      dz2     :     0.000030  d :     0.000254
      dxz     :     0.000189
      dyz     :     0.000015
      dx2y2   :     0.000009
      dxy     :     0.000011

 13 O s       :     0.009413  s :     0.009413
      pz      :     0.009151  p :     0.555810
      px      :     0.541627
      py      :     0.005032
      dz2     :    -0.000880  d :    -0.002648
      dxz     :    -0.000180
      dyz     :    -0.000243
      dx2y2   :    -0.001363
      dxy     :     0.000017
      f0      :    -0.000075  f :    -0.000159
      f+1     :     0.000005
      f-1     :    -0.000037
      f+2     :    -0.000064
      f-2     :     0.000027
      f+3     :    -0.000018
      f-3     :     0.000004

 14 H s       :    -0.014301  s :    -0.014301
      pz      :     0.002643  p :     0.025407
[...]
     38       0.028517   0.864747  -0.096660   0.126353   0.271546   0.035507
     39       0.016046  -0.000003   0.000004  -0.000033  -0.000001  -0.000079
     40       0.003174   0.000045   0.000033   0.000082  -0.000022  -0.000005
     41      -0.009096  -0.000073   0.000037   0.000118  -0.000046   0.000156
     42       0.105949   0.000281  -0.001227   0.001236   0.000637   0.002875
     43       0.000774  -0.001450   0.000469  -0.000449   0.002080  -0.000754
     44      -0.004364   0.000191   0.001145  -0.001049   0.000860  -0.002636
                 42         43         44    
      0      -0.000271   0.029743  -0.000320
      1      -0.001019   0.084434  -0.000069
      2       0.000065   0.006219   0.000092
      3      -0.000096   0.005351   0.000659
      4       0.000181  -0.006810  -0.000204
      5       0.000105   0.000246   0.000139
      6       0.003369  -0.385939  -0.001510
      7       0.008290  -0.914247  -0.001951
      8       0.000729  -0.073260   0.001275
      9       0.003621   0.000044  -0.000300
     10      -0.013494  -0.000994   0.000217
     11       0.029918  -0.000247   0.000224
     12      -0.001607   0.000238  -0.011859
     13       0.000283   0.001128   0.001873
     14      -0.000305  -0.001004  -0.006347
     15       0.028280  -0.001018  -0.000047
     16       0.018498  -0.000988  -0.000082
     17       0.080318   0.000957  -0.000160
     18      -0.067122  -0.001437   0.001403
     19       0.226424   0.005030   0.000393
     20      -0.195415  -0.002878  -0.001608
     21       0.024082  -0.000775   0.001043
     22      -0.067063   0.002427  -0.001401
     23      -0.160361   0.007144  -0.000240
     24      -0.002772  -0.003871   0.000009
     25       0.002264   0.001391   0.000121
     26       0.014933   0.000870  -0.000322
     27       0.153851   0.003219   0.000650
     28       0.097647   0.002159   0.000845
     29      -0.542615  -0.014404   0.001190
     30      -0.487897   0.002264   0.002033
     31      -0.313461   0.001885   0.002370
     32      -0.420241   0.002747   0.001259
     33       0.066214   0.023117   0.001162
     34      -0.058621  -0.017008   0.001126
     35      -0.069754  -0.021353   0.000893
     36      -0.030830   0.003761  -0.001555
     37       0.029895   0.000089  -0.001449
     38      -0.105599   0.006919  -0.000408
     39       0.000048  -0.000193   0.002388
     40      -0.000059  -0.000126   0.023124
     41      -0.000170   0.000088  -0.058126
     42      -0.003533  -0.001831  -0.029292
     43       0.000914   0.002649  -0.368633
     44       0.002771  -0.001161   0.926882


-----------
IR SPECTRUM
-----------

 Mode   freq       eps      Int      T**2         TX        TY        TZ
       cm**-1   L/(mol*cm) km/mol    a.u.
----------------------------------------------------------------------------
  7:     60.81   0.006906   34.90  0.035435  (-0.025149 -0.176233 -0.061193)
  8:    106.02   0.000549    2.77  0.001615  ( 0.010427  0.038067  0.007550)
  9:    134.63   0.000915    4.62  0.002121  ( 0.032627 -0.031093 -0.009471)
 10:    242.55   0.010308   52.09  0.013262  (-0.016515 -0.104218 -0.046125)
 11:    347.01   0.000286    1.45  0.000257  ( 0.003675 -0.011992 -0.009994)
 12:    433.77   0.003173   16.03  0.002283  (-0.040731  0.014735 -0.020163)
 13:    619.01   0.000708    3.58  0.000357  ( 0.014339  0.000318 -0.012302)
 14:    725.35   0.018437   93.17  0.007932  ( 0.073758 -0.006253 -0.049522)
 15:    797.84   0.001502    7.59  0.000587  ( 0.021492 -0.000203 -0.011200)
 16:    836.97   0.023178  117.13  0.008642  ( 0.092507  0.000532 -0.009170)
 17:    854.68   0.003967   20.05  0.001448  (-0.031632  0.005203 -0.020509)
 18:    899.77   0.006121   30.93  0.002123  ( 0.039880  0.021070  0.009411)
 19:    910.92   0.000792    4.00  0.000271  (-0.013382  0.006744  0.006843)
 20:    932.89   0.001911    9.66  0.000639  (-0.002612  0.025151 -0.000056)
 21:    992.59   0.004918   24.85  0.001546  (-0.036723 -0.010167 -0.009704)
 22:   1033.29   0.001230    6.22  0.000372  ( 0.013950 -0.013013 -0.002770)
 23:   1063.43   0.001676    8.47  0.000492  (-0.021765  0.002846  0.003143)
 24:   1073.31   0.002994   15.13  0.000870  ( 0.020592 -0.001511 -0.021075)
 25:   1149.76   0.000264    1.33  0.000072  (-0.003780  0.007508 -0.000990)
 26:   1215.88   0.002797   14.14  0.000718  ( 0.026627 -0.002300 -0.001923)
 27:   1233.12   0.000183    0.93  0.000046  (-0.004026 -0.004033  0.003732)
 28:   1267.50   0.000427    2.16  0.000105  ( 0.007335  0.000698  0.007121)
 29:   1320.20   0.002166   10.95  0.000512  (-0.017782  0.013951  0.001089)
 30:   1325.61   0.000424    2.14  0.000100  (-0.007741 -0.005564 -0.003005)
 31:   1345.32   0.002001   10.11  0.000464  ( 0.005776 -0.010843  0.017696)
 32:   1355.04   0.000296    1.50  0.000068  ( 0.004829 -0.004561 -0.004904)
 33:   1486.51   0.000479    2.42  0.000100  (-0.005029 -0.001429  0.008553)
 34:   1496.76   0.000305    1.54  0.000064  ( 0.003292 -0.007224 -0.000807)
 35:   1514.71   0.000154    0.78  0.000032  (-0.002984 -0.004734 -0.000713)
 36:   1773.40   0.001230    6.22  0.000216  (-0.012487  0.005973  0.004985)
 37:   3035.33   0.006916   34.95  0.000711  (-0.015846  0.014989 -0.015338)
 38:   3047.46   0.005756   29.09  0.000589  ( 0.005537 -0.020658 -0.011488)
 39:   3070.65   0.004478   22.63  0.000455  (-0.016879 -0.012500  0.003732)
 40:   3093.60   0.006116   30.91  0.000617  ( 0.020525 -0.006679 -0.012291)
 41:   3110.45   0.003522   17.80  0.000353  (-0.005267 -0.017291  0.005157)
 42:   3127.50   0.006539   33.04  0.000652  ( 0.007594  0.002344  0.024275)
 43:   3224.03   0.000689    3.48  0.000067  ( 0.002449  0.007755  0.000739)
 44:   3798.87   0.006258   31.63  0.000514  (-0.018390 -0.004869  0.012336)

* The epsilon (eps) is given for a Dirac delta lineshape.
** The dipole moment derivative (T) already includes vibrational overlap.

The first frequency considered to be a vibration is 7
The total number of vibrations considered is 38


--------------------------
THERMOCHEMISTRY AT 298.15K
--------------------------

Temperature         ...   298.15 K
Pressure            ...     1.00 atm
Total Mass          ...    85.13 AMU
Quasi RRHO          ...     True
Cut-Off Frequency   ...     1.00 cm^-1

Throughout the following assumptions are being made:
  (1) The electronic state is orbitally nondegenerate
      but the spin degeneracy is treated
  (2) There are no thermally accessible electronically excited states
  (3) Hindered rotations indicated by low frequency modes are not
      treated as such but are treated as vibrations and this may
      cause some error
  (4) All equations used are the standard statistical mechanics
      equations for an ideal gas
  (5) All vibrations are strictly harmonic

freq.      60.81  E(vib)   ...       0.51 
freq.     106.02  E(vib)   ...       0.45 
freq.     134.63  E(vib)   ...       0.42 
freq.     242.55  E(vib)   ...       0.31 
freq.     347.01  E(vib)   ...       0.23 
freq.     433.77  E(vib)   ...       0.17 
freq.     619.01  E(vib)   ...       0.09 
freq.     725.35  E(vib)   ...       0.06 
freq.     797.84  E(vib)   ...       0.05 
freq.     836.97  E(vib)   ...       0.04 
freq.     854.68  E(vib)   ...       0.04 
freq.     899.77  E(vib)   ...       0.03 
freq.     910.92  E(vib)   ...       0.03 
freq.     932.89  E(vib)   ...       0.03 
freq.     992.59  E(vib)   ...       0.02 
freq.    1033.29  E(vib)   ...       0.02 
freq.    1063.43  E(vib)   ...       0.02 
freq.    1073.31  E(vib)   ...       0.02 
freq.    1149.76  E(vib)   ...       0.01 
freq.    1215.88  E(vib)   ...       0.01 
freq.    1233.12  E(vib)   ...       0.01 
freq.    1267.50  E(vib)   ...       0.01 
freq.    1320.20  E(vib)   ...       0.01 
freq.    1325.61  E(vib)   ...       0.01 
freq.    1345.32  E(vib)   ...       0.01 
freq.    1355.04  E(vib)   ...       0.01 
freq.    1486.51  E(vib)   ...       0.00 
freq.    1496.76  E(vib)   ...       0.00 
freq.    1514.71  E(vib)   ...       0.00 
freq.    1773.40  E(vib)   ...       0.00 
freq.    3035.33  E(vib)   ...       0.00 
freq.    3047.46  E(vib)   ...       0.00 
freq.    3070.65  E(vib)   ...       0.00 
freq.    3093.60  E(vib)   ...       0.00 
freq.    3110.45  E(vib)   ...       0.00 
freq.    3127.50  E(vib)   ...       0.00 
freq.    3224.03  E(vib)   ...       0.00 
freq.    3798.87  E(vib)   ...       0.00 

------------
INNER ENERGY
------------

The inner energy is: U= E(el) + E(ZPE) + E(vib) + E(rot) + E(trans)
    E(el)   - is the total energy from the electronic structure calculation
              = E(kin-el) + E(nuc-el) + E(el-el) + E(nuc-nuc)
    E(ZPE)  - the the zero temperature vibrational energy from the frequency calculation
    E(vib)  - the the finite temperature correction to E(ZPE) due to population
              of excited vibrational states
    E(rot)  - is the rotational thermal energy
    E(trans)- is the translational thermal energy

Summary of contributions to the inner energy U:
Electronic energy                ...   -270.64609353 Eh
Zero point energy                ...      0.12314985 Eh      77.28 kcal/mol
Thermal vibrational correction   ...      0.00420885 Eh       2.64 kcal/mol
Thermal rotational correction    ...      0.00141627 Eh       0.89 kcal/mol
Thermal translational correction ...      0.00141627 Eh       0.89 kcal/mol
-----------------------------------------------------------------------
Total thermal energy                   -270.51590229 Eh


Summary of corrections to the electronic energy:
(perhaps to be used in another calculation)
Total thermal correction                  0.00704140 Eh       4.42 kcal/mol
Non-thermal (ZPE) correction              0.12314985 Eh      77.28 kcal/mol
-----------------------------------------------------------------------
Total correction                          0.13019125 Eh      81.70 kcal/mol


--------
ENTHALPY
--------

The enthalpy is H = U + kB*T
                kB is Boltzmann's constant
Total thermal energy              ...   -270.51590229 Eh 
Thermal Enthalpy correction       ...      0.00094421 Eh       0.59 kcal/mol
-----------------------------------------------------------------------
Total Enthalpy                    ...   -270.51495808 Eh


Note: Only C1 symmetry has been detected, increase convergence thresholds 
      if your molecule has a higher symmetry. Symmetry factor of 1.0 is   
      used for the rotational entropy correction. 
 

Note: Rotational entropy computed according to Herzberg 
Infrared and Raman Spectra, Chapter V,1, Van Nostrand Reinhold, 1945 
Point Group:  C1, Symmetry Number:   1  
Rotational constants in cm-1:     0.236629     0.066661     0.054142 

Vibrational entropy computed according to the QRRHO of S. Grimme
Chem.Eur.J. 2012 18 9955 using a reference frequency of 100.0 cm-1


-------
ENTROPY
-------

The entropy contributions are T*S = T*(S(el)+S(vib)+S(rot)+S(trans))
     S(el)   - electronic entropy
     S(vib)  - vibrational entropy
     S(rot)  - rotational entropy
     S(trans)- translational entropy
The entropies will be listed as multiplied by the temperature to get
units of energy

Electronic entropy                ...      0.00065446 Eh      0.41 kcal/mol
Vibrational entropy               ...      0.00734630 Eh      4.61 kcal/mol
Rotational entropy                ...      0.01284638 Eh      8.06 kcal/mol
Translational entropy             ...      0.01864317 Eh     11.70 kcal/mol
-----------------------------------------------------------------------
Final entropy term                ...      0.03949031 Eh     24.78 kcal/mol

In case the symmetry of your molecule has not been determined correctly
or in case you have a reason to use a different symmetry number we print 
out the resulting rotational entropy values for sn=1,12:

 non-linear molecules -----------------------------------
|  sn= 1 | S(rot)=       0.01284638 Eh      8.06 kcal/mol|
|  sn= 2 | S(rot)=       0.01219193 Eh      7.65 kcal/mol|
|  sn= 3 | S(rot)=       0.01180910 Eh      7.41 kcal/mol|
|  sn= 4 | S(rot)=       0.01153747 Eh      7.24 kcal/mol|
|  sn= 5 | S(rot)=       0.01132678 Eh      7.11 kcal/mol|
|  sn= 6 | S(rot)=       0.01115464 Eh      7.00 kcal/mol|
|  sn= 7 | S(rot)=       0.01100909 Eh      6.91 kcal/mol|
|  sn= 8 | S(rot)=       0.01088302 Eh      6.83 kcal/mol|
|  sn= 9 | S(rot)=       0.01077181 Eh      6.76 kcal/mol|
|  sn=10 | S(rot)=       0.01067233 Eh      6.70 kcal/mol|
|  sn=11 | S(rot)=       0.01058234 Eh      6.64 kcal/mol|
|  sn=12 | S(rot)=       0.01050018 Eh      6.59 kcal/mol|
 linear molecules ---------------------------------------
|  Dinfh | S(rot)=       0.00807917 Eh      5.07 kcal/mol|
|  Cinfv | S(rot)=       0.00873363 Eh      5.48 kcal/mol|
 --------------------------------------------------------


-------------------
GIBBS FREE ENERGY
-------------------

The Gibbs free energy is G = H - T*S

Total enthalpy                    ...   -270.51495808 Eh 
Total entropy correction          ...     -0.03949031 Eh    -24.78 kcal/mol
-----------------------------------------------------------------------
Final Gibbs free energy         ...   -270.55444839 Eh

For completeness - the Gibbs free energy minus the electronic energy
G-E(el)                           ...      0.09164515 Eh     57.51 kcal/mol



--------------------------------
SUGGESTED CITATIONS FOR THIS RUN
--------------------------------

Below you find a list of papers that are relevant to this ORCA run
We neither can nor want to force you to cite these papers, but we appreciate if you do
You receive ORCA, which is the product of decades of hard work by many enthusiastic individuals, for free
The only thing we kindly ask in return is that you cite our papers,
We deeply appreciate it, if you show your appreciation for ORCA by not just citing the generic ORCA reference.

Please note that relegating all ORCA citations to the supporting information does *not* help us.
SI sections are not indexed - citations you put there will not count into any citation statistics
But we need these citations in order to attract the funding resources that allow us to do what we are doing

Therefore, if you are a happy ORCA user, please consider citing a few of the papers listed below in the main body of your paper

In addition to the list printed below, the program has created the file opt.bibtex that contains the list in bibtex format
You can import this file easily into all common literature databanks and citation aid programs

It goes without saying that in many instances, there are alternative algorithms to achieve similar
results as the ones you have gotten from ORCA. It is, of course, also the case that in some instances
ORCA just re-implements algorithms worked out by others. We are fully aware of that and we are also
fully appreciative of our colleagues work. Hence this citation list should not be read as indicating
that the listed papers, which are focused on our own work, are the only ones worth citing. It simply
meant to make it easier for users to cite ORCA specific papers. It is not a substitute for doing your
own literature research and citing the relevant literature in a scientifically appropriate manner.

List of essential papers. We consider these as the minimum necessary citations

  1. Neese, F.
     Software update: the ORCA program system, version 6.0
     WIRES Comput. Molec. Sci. 2025 15(1), e70019
     doi.org/10.1002/wcms.70019

List of papers to cite with high priority. The work reported in these papers was absolutely
necessary for this run to complete.
Our perspective: the developers of density functionals and basis sets usually get cited in chemistry papers
Good! But without the algorithms to do something with them, the functionals or basis sets would not do anything.
Hence, in our opinion, the algorithm design and method developments papers are equally worthy of getting cited

  1. Neese, F.
     An improvement of the resolution of the identity approximation for the formation of the Coulomb matrix
     J. Comp. Chem. 2003 24(14), 1740-1747
     doi.org/10.1002/jcc.10318
  2. Neese, F.; Schwabe, T.; Grimme, S.
     Analytic derivatives for perturbatively corrected 'double hybrid' density functionals: Theory, implementation, and applications
     J. Chem. Phys. 2007 126(12), Art. No. 124115
     doi.org/10.1063/1.2712433
  3. Neese, F.; Wennmohs, F.; Hansen, A.; Becker, U.
     Efficient, approximate and parallel Hartree-Fock and hybrid DFT calculations. A 'chain-of-spheres' algorithm for the Hartree-Fock exchange
     Chem. Phys. 2009 356(1-3), 98-109
     doi.org/10.1016/j.chemphys.2008.10.036
  4. Kossmann, S.; Neese, F.
     Efficient Structure Optimization with Second-Order Many-Body Perturbation Theory: The RIJCOSX-MP2 Method
     J. Theo. Comp. Chem. 2010 6 , 2325-2338
     doi.org/10.1021/ct100199k
  5. Caldeweyher, E.; Bannwarth, C.; Grimme, S.
     Extension of the D3 dispersion coefficient model
     J. Chem. Phys. 2017 147 , 034112
     doi.org/10.1063/1.4993215
  6. Caldeweyher, E.; Ehlert, S.; Hansen, A.; Neugebauer, H.; Spicher, S.; Bannwarth, C.; Grimme, S.
     A generally applicable atomic-charge dependent London dispersion correction
     J. Chem. Phys. 2019 150 , 154122
     doi.org/10.1063/1.5090222
  7. Helmich-Paris, B.; de Souza, B.; Neese, F.; Izsák, R.
     An improved chain of spheres for exchange algorithm
     J. Chem. Phys. 2021 155(10), 104109
     doi.org/10.1063/5.0058766
  8. Neese, F.
     The SHARK Integral Generation and Digestion System
     J. Comp. Chem. 2022 44(3), 381
     doi.org/10.1002/jcc.26942

List of suggested additional citations. These are papers that are important in the 'surrounding' of 
of this run, or papers that preceded the highly important papers. If you like your results we are grateful for a citation.

  1. Izsak, R.; Neese, F.
     An overlap fitted chain of spheres exchange method
     J. Chem. Phys. 2011 135 , 144105
     doi.org/10.1063/1.3646921
  2. Izsak, R.; Hansen, A.; Neese, F.
     The resolution of identity and chain of spheres approximations for the LPNO-CCSD singles Fock term
     Molec. Phys. 2012 110 , 2413-2417
     doi.org/10.1080/00268976.2012.687466
  3. Neese, F.
     The ORCA program system
     WIRES Comput. Molec. Sci. 2012 2(1), 73-78
     doi.org/10.1002/wcms.81
  4. Izsak, R.; Neese, F.; Klopper, W.
     Robust fitting techniques in the chain of spheres approximation to the Fock exchange: The role of the complementary space
     J. Chem. Phys. 2013 139 , 
     doi.org/10.1063/1.4819264
  5. Neese, F.
     Software update: the ORCA program system, version 4.0
     WIRES Comput. Molec. Sci. 2018 8(1), 1-6
     doi.org/10.1002/wcms.1327
  6. Neese, F.; Wennmohs, F.; Becker, U.; Riplinger, C.
     The ORCA quantum chemistry program package
     J. Chem. Phys. 2020 152(22), 224108
     doi.org/10.1063/5.0004608
  7. Neese, F.
     Software update: The ORCA program system—Version 5.0
     WIRES Comput. Molec. Sci. 2022 12(1), e1606
     doi.org/10.1002/wcms.1606

List of optional additional citations

  1. Neese, F.
     Approximate second-order SCF convergence for spin unrestricted wavefunctions
     Chem. Phys. Lett. 2000 325(1-3), 93-98
     doi.org/10.1016/s0009-2614(00)00662-x

Timings for individual modules:

Sum of individual times          ...     7716.473 sec (= 128.608 min)
Startup calculation              ...       95.516 sec (=   1.592 min)   1.2 %
SCF iterations                   ...      896.967 sec (=  14.949 min)  11.6 %
Property calculations            ...        3.224 sec (=   0.054 min)   0.0 %
MP2 module                       ...     1087.127 sec (=  18.119 min)  14.1 %
Geometry relaxation              ...        1.334 sec (=   0.022 min)   0.0 %
Numerical frequency calculation  ...     5632.304 sec (=  93.872 min)  73.0 %
                             ****ORCA TERMINATED NORMALLY****
TOTAL RUN TIME: 0 days 2 hours 5 minutes 31 seconds 786 msec
