
                                 *****************
                                 * O   R   C   A *
                                 *****************

                                            #,                                       
                                            ###                                      
                                            ####                                     
                                            #####                                    
                                            ######                                   
                                           ########,                                 
                                     ,,################,,,,,                         
                               ,,#################################,,                 
                          ,,##########################################,,             
                       ,#########################################, ''#####,          
                    ,#############################################,,   '####,        
                  ,##################################################,,,,####,       
                ,###########''''           ''''###############################       
              ,#####''   ,,,,##########,,,,          '''####'''          '####       
            ,##' ,,,,###########################,,,                        '##       
           ' ,,###''''                  '''############,,,                           
         ,,##''                                '''############,,,,        ,,,,,,###''
      ,#''                                            '''#######################'''  
     '                                                          ''''####''''         
             ,#######,   #######,   ,#######,      ##                                
            ,#'     '#,  ##    ##  ,#'     '#,    #''#        ,####,    ,#,          
            ##       ##  ##   ,#'  ##            #'  '#       #'       ,# #          
            ##       ##  #######   ##           ,######,      #####,      #          
            '#,     ,#'  ##    ##  '#,     ,#' ,#      #,     #,   #      #          
             '#######'   ##     ##  '#######'  #'      '#     '####' #    #          



                #########################################################
                #                        -***-                          #
                #          Department of theory and spectroscopy        #
                #                                                       #
                #                      Frank Neese                      #
                #                                                       #
                #     Directorship, Architecture, Infrastructure        #
                #                    SHARK, DRIVERS                     #
                #        Core code/Algorithms in most modules           #
                #                                                       #
                #        Max Planck Institute fuer Kohlenforschung      #
                #                Kaiser Wilhelm Platz 1                 #
                #                 D-45470 Muelheim/Ruhr                 #
                #                      Germany                          #
                #                                                       #
                #                  All rights reserved                  #
                #                        -***-                          #
                #########################################################


                         Program Version 6.1.1  -  RELEASE   -
                                (GIT: $487d211c$)
                          ($2025-11-21 10:33:24 +0100$)


 With contributions from (in alphabetic order):
[Max-Planck-Institut fuer Kohlenforschung]                               
  Daniel Aravena         : Magnetic Suceptibility                        
  Michael Atanasov       : Ab Initio Ligand Field Theory (pilot matlab implementation)
  Alexander A. Auer      : GIAO ZORA, VPT2 properties, NMR spectrum      
  Ute Becker             : All parallelization in ORCA, NUMFREQ, NUMCALC 
  Giovanni Bistoni       : ED, misc. LED, open-shell LED, HFLD           
  Dmytro Bykov           : pre 5.0 version of the SCF Hessian            
  Marcos Casanova-Páez   : Triplet and SCS-CIS(D). UHF-(DLPNO)-IP/EA/STEOM-CCSD. UHF-CVS-IP/STEOM-CCSD   
  Vijay G. Chilkuri      : MRCI spin determinant printing, contributions to CSF-ICE 
  Pauline Colinet        : FMM embedding                                 
  Dipayan Datta          : RHF DLPNO-CCSD density                        
  Achintya Kumar Dutta   : EOM-CC, STEOM-CC                              
  Nicolas Foglia         : Exact transition moments, OPA infrastructure, MCD improvements    
  Dmitry Ganyushin       : Spin-Orbit,Spin-Spin,Magnetic field MRCI      
  Miquel Garcia-Rates    : C-PCM and meta-GGA Hessian, CCSD/C-PCM, Gaussian charge scheme 
  Tiago L. C. Gouveia    : GS-ROHF, GS-ROCIS                             
  Yang Guo               : DLPNO-NEVPT2, F12-NEVPT2, CIM, IAO-localization        
  Andreas Hansen         : Spin unrestricted coupled pair/coupled cluster methods 
  Ingolf Harden          : AUTO-CI MPn and infrastructure                
  Benjamin Helmich-Paris : MC-RPA, TRAH-(SCF,CASSCF), AVAS, COSX integrals, SCF dyn. polar., MC-PDFT, srDFT 
  Lee Huntington         : MR-EOM, pCC                                   
  Robert Izsak           : Overlap fitted RIJCOSX, COSX-SCS-MP3, EOM     
  Riya Kayal             : Wick's Theorem for AUTO-CI, AUTO-CI UHF-CCSDT 
  Emily Kempfer          : AUTO-CI RHF CISDT and CCSDT, approximate NEVPT4
  Christian Kollmar      : KDIIS, OOCD, Brueckner-CCSD(T), CCSD density, CASPT2, CASPT2-K, improved NEVPT2 
  Axel Koslowski         : Symmetry handling                             
  Simone Kossmann        : meta-GGA functionals, TD-DFT gradient, OOMP2, (MP2 Hessian; deprecated post 5.0) 
  Lucas Lang             : DCDCAS, Hyperfine gauge corrections, ICE-SOC+SSC
  Marvin Lechner         : AUTO-CI (C++ implementation), FIC-MRCC        
  Spencer Leger          : CASSCF response                               
  Dagmar Lenk            : GEPOL surface, SMD, ORCA-2-JSON               
  Dimitrios Liakos       : Extrapolation schemes; Compound Job, Property file
  Dimitrios Manganas     : Further ROCIS development; embedding schemes. LFT, Crystal Embedding 
  Dimitrios Pantazis     : SARC Basis sets                               
  Anastasios Papadopoulos: AUTO-CI, single reference methods and gradients 
  Taras Petrenko         : pre 6.0 DFT Hessian and TD-DFT gradient,  ECA, NRVS 
  Petra Pikulova         : Analytic Raman intensities                    
  Peter Pinski           : DLPNO-MP2, DLPNO-MP2 Gradient                 
  Shashank Vittal Rao    : ES-AILFT, MagRelax                            
  Christoph Reimann      : Effective Core Potentials                     
  Marius Retegan         : Local ZFS, SOC                                
  Christoph Riplinger    : Optimizer, TS searches, QM/MM, DLPNO-CCSD(T), (RO)-DLPNO pert. Triples 
  Michael Roemelt        : Original ROCIS implementation, recursive CI coupling coefficients
  Masaaki Saitow         : Open-shell DLPNO-CCSD energy and density      
  Barbara Sandhoefer     : DKH picture change effects                    
  Yorick L. A. Schmerwitz: GMF and freeze-and-release deltaSCF, NEB S-IDPP initial path                    
  Kantharuban Sivalingam : CASSCF convergence/infrastructure, NEVPT2, NEVPT3, NEVPT4(SD), FIC-MRCI and CEPA variants
  Bernardo de Souza      : ESD, SOC TD-DFT                               
  Georgi L. Stoychev     : AutoAux, RI-MP2 NMR, DLPNO-MP2 response, X2C  
  Van Anh Tran           : RI-MP2 g-tensors                              
  Willem Van den Heuvel  : Paramagnetic NMR                              
  Zikuan Wang            : NOTCH, Electric field optimization            
  Frank Wennmohs         : Technical directorship and infrastructure     
  Hang Xu                : AUTO-CI-Response properties                   
                                                                         
[FACCTs GmbH]                                                            
  Markus Bursch, Nicolas Foglia, Miquel Garcia-Rates, Ingolf Harden, Hagen Neugebauer, Anastasios Papadopoulos, 
  Christoph Riplinger, Bernardo de Souza, Georgi L. Stoychev                                                    
                                                                 
  APM, various basis sets, CI-OPT, improved COSX, DLPNO-Multilevel,           
  DOCKER, DRACO, updates on ESD, Fragmentator, GOAT, IRC, LR-CPCM, L-BFGS, MBIS, meta-GGA TD-DFT gradient, ML-optimized integration grids, 
  MM, NACMEs, nearIR, NEB, NEB-TS, NL-DFT gradient (VV10), 2- and 3-layer-ONIOM, interface openCOSMO-RS, QMMM,   
  Crystal-QMMM, RESP, rigid body optimization, SF, symmetry and pop. for TD-DFT, various functionals, SOLVATOR                                   
                                                                         
[Other institutions]                                                     
  V. Asgeirsson          : NEB                                           
  Christoph Bannwarth    : sTDA-DFT, sTD-DFT, PBEh-3c, B97-3c, D3        
  Giovanni Bistoni       : ETS/NOCV, ADLD/ADEX, COVALED                  
  Martin Brehm           : Molecular dynamics                            
  Ronald Cardenas        : ETS/NOCV                                      
  Martina Colucci        : COVALED                                       
  Sebastian Ehlert       : rSCAN, r2SCAN, r2SCAN-3c, D4, dhf basis sets  
  Marvin Friede          : D4 for Fr, Ra, Ac-Lr                          
  Lars Goerigk           : TD-DFT with DH, B97 family of functionals     
  Stefan Grimme          : VdW corrections, initial TS optimization, DFT functionals, gCP, sTDA/sTD-DF 
  Waldemar Hujo          : DFT-NL                                        
  H. Jonsson             : NEB                                           
  Holger Kruse           : gCP                                           
  Marcel Mueller         : wB97X-3c, vDZP basis set                      
  Hagen Neugebauer       : wr2SCAN, Native XTB                           
  Gianluca Regni         : ADLD/ADEX                                     
  Tobias Risthaus        : pre 6.0 range-separated hybrid DFT and stability analysis
  Lukas Wittmann         : regularized MP2, r2SCAN double-hybrids, wr2SCAN        
                                                                         
We gratefully acknowledge several colleagues who have allowed us to      
interface, adapt or use parts of their codes:                            
  Ed Valeev, F. Pavosevic, A. Kumar             : LibInt (2-el integral package), F12 methods 
  Garnet Chan, S. Sharma, J. Yang, R. Olivares  : DMRG                   
  Ulf Ekstrom                                   : XCFun DFT Library      
  Mihaly Kallay                                 : mrcc  (arbitrary order and MRCC methods)
  Frank Weinhold                                : gennbo (NPA and NBO analysis)           
  Simon Mueller                                 : openCOSMO-RS                            
  Christopher J. Cramer and Donald G. Truhlar   : smd solvation model                     
  S Lehtola, MJT Oliveira, MAL Marques          : LibXC Library                           
  Liviu Ungur et al                             : ANISO software                          


 Your calculation uses the libint2 library for the computation of 2-el integrals
 For citations please refer to: http://libint.valeyev.net

 Your ORCA version has been built with support for libXC version: 7.0.0
 For citations please refer to: https://libxc.gitlab.io

 This ORCA versions uses:
   CBLAS   interface :  Fast vector & matrix operations
   LAPACKE interface :  Fast linear algebra routines
   SCALAPACK package :  Parallel linear algebra routines
   Shared memory     :  Shared parallel matrices
   BLAS/LAPACK       :  OpenBLAS 0.3.29  USE64BITINT DYNAMIC_ARCH NO_AFFINITY Cooperlake SINGLE_THREADED
        Core in use  :  Cooperlake
   Copyright (c) 2011-2014, The OpenBLAS Project


  ***********************************
  * Starting time: Tue Mar 10 16:10:00 2026
  * Host name:     e3-7
  * Process ID:    2373518
  * Working dir.:  /tmp/lscratch/avcopan/43470694
  ***********************************

NOTE: MaxCore=9000 MB was set to SCF,MP2,MDCI,CIPSI,MRCI,RASCI and CIS
      => If you want to overwrite this, your respective input block should be placed after the MaxCore statement


***************************************
The coordinates will be read from file: opt.xyz
***************************************


================================================================================

----- Orbital basis set information -----
Your calculation utilizes the basis: cc-pVDZ-F12 

----- AuxC basis set information -----
Your calculation utilizes the auxiliary basis: cc-pVTZ/C 
  Obtained from the EMSL Basis Set Exchange (bse.pnl.gov) Feb. 2017
  H-He, B-F, Al-Ar, Ga-Kr : F. Weigend, A. Kohn, C. Hattig, J. Chem. Phys. 116, 3175 (2002)
             Li-Be, Na-Mg : C. Haettig, Phys. Chem. Chem. Phys. 7, 59 (2005)
                       Ne : C. Haettig, Phys. Chem. Chem. Phys. 7, 59 (2005)
                            F. Weigend, A. Kohn, C. Hattig, J. Chem. Phys. 116, 3175 (2002)
                    Sc-Zn : J. G. Hill, J. A. Platts, J. Chem. Phys. 128, 044104 (2008)

----- CABS information -----
Your calculation utilizes the basis: cc-pVDZ-F12 


                    <<< The CABS basis set will be decontracted >>>

================================================================================
                                        WARNINGS
                       Please study these warnings very carefully!
================================================================================


WARNING: Post HF methods need fully converged wavefunctions
  ===> : Setting SCFConvForced true
         You can overwrite this default with %scf ConvForced false 


WARNING: MDCI localization with Augmented Hessian Foster-Boys
  ===> : Switching off randomization!

WARNING: UseCISUpdate is  only available for RHF calculations...
  ===> : Setting UseCISUpdate = false 

================================================================================
                                       INPUT FILE
================================================================================
NAME = sp.inp
|  1> # 
|  2> % MaxCore 9000
|  3> ! PAL8
|  4> ! uhf ccsd(t)-f12/ri cc-pvdz-f12 cc-pvdz-f12-cabs cc-pvtz/c
|  5> * xyzfile 0 2 opt.xyz
|  6> 
|  7> 
|  8>                          ****END OF INPUT****
================================================================================

                       ****************************
                       * Single Point Calculation *
                       ****************************

---------------------------------
CARTESIAN COORDINATES (ANGSTROEM)
---------------------------------
  C      0.157128   -1.144919   -0.082326
  C     -0.520168   -0.007648   -0.104496
  H     -0.267487   -2.136792   -0.162670
  C      0.313787    1.223577    0.110796
  H     -1.741160    0.053882   -0.237917
  C      1.738307    0.657019   -0.115719
  H      0.068690    2.033247   -0.577494
  H      0.176888    1.605340    1.127553
  C      1.631639   -0.868557    0.121646
  H      2.024524    0.835341   -1.153742
  H      2.483198    1.132552    0.522739
  H      2.267395   -1.438913   -0.558571
  H      1.923609   -1.143316    1.141327
  O     -2.980575    0.032115   -0.064003
  H     -3.003713   -0.327275    0.834054

----------------------------
CARTESIAN COORDINATES (A.U.)
----------------------------
  NO LB      ZA    FRAG     MASS         X           Y           Z
   0 C     6.0000    0    12.011    0.296929   -2.163583   -0.155574
   1 C     6.0000    0    12.011   -0.982975   -0.014452   -0.197468
   2 H     1.0000    0     1.008   -0.505476   -4.037951   -0.307402
   3 C     6.0000    0    12.011    0.592971    2.312226    0.209374
   4 H     1.0000    0     1.008   -3.290315    0.101821   -0.449597
   5 C     6.0000    0    12.011    3.284924    1.241586   -0.218677
   6 H     1.0000    0     1.008    0.129806    3.842280   -1.091306
   7 H     1.0000    0     1.008    0.334270    3.033654    2.130765
   8 C     6.0000    0    12.011    3.083352   -1.641336    0.229878
   9 H     1.0000    0     1.008    3.825796    1.578565   -2.180256
  10 H     1.0000    0     1.008    4.692563    2.140213    0.987833
  11 H     1.0000    0     1.008    4.284756   -2.719152   -1.055546
  12 H     1.0000    0     1.008    3.635094   -2.160554    2.156795
  13 O     8.0000    0    15.999   -5.632471    0.060689   -0.120947
  14 H     1.0000    0     1.008   -5.676196   -0.618459    1.576134

--------------------------------
INTERNAL COORDINATES (ANGSTROEM)
--------------------------------
 C      0   0   0     0.000000000000     0.00000000     0.00000000
 C      1   0   0     1.323860681485     0.00000000     0.00000000
 H      1   2   0     1.081926301911   125.83998409     0.00000000
 C      2   1   3     1.502580100517   114.68114660   176.43232599
 H      2   1   3     1.229799655571   123.55518408   359.11326743
 C      4   2   1     1.549695078995   100.93361648    15.16076701
 H      4   2   1     1.090587420421   113.15256487   135.81877036
 H      4   2   1     1.094659027400   110.45323998   256.26724402
 C      1   2   3     1.513989260466   110.10317388   181.94177258
 H      6   4   2     1.091425805086   108.68363727    95.08236723
 H      6   4   2     1.090239212294   112.51895025   214.45478164
 H      9   1   2     1.091872985260   112.81742081   225.85080676
 H      9   1   2     1.095667216735   109.82419203   106.49115987
 O      5   2   1     1.251747461248   165.26520901    77.67062279
 H     14   5   2     0.967575458891    99.15415944   353.30997950

---------------------------
INTERNAL COORDINATES (A.U.)
---------------------------
 C      0   0   0     0.000000000000     0.00000000     0.00000000
 C      1   0   0     2.501734127473     0.00000000     0.00000000
 H      1   2   0     2.044544407697   125.83998409     0.00000000
 C      2   1   3     2.839464884257   114.68114660   176.43232599
 H      2   1   3     2.323984548619   123.55518408   359.11326743
 C      4   2   1     2.928499290386   100.93361648    15.16076701
 H      4   2   1     2.060911549695   113.15256487   135.81877036
 H      4   2   1     2.068605771811   110.45323998   256.26724402
 C      1   2   3     2.861025071979   110.10317388   181.94177258
 H      6   4   2     2.062495867107   108.68363727    95.08236723
 H      6   4   2     2.060253531697   112.51895025   214.45478164
 H      9   1   2     2.063340915168   112.81742081   225.85080676
 H      9   1   2     2.070510973545   109.82419203   106.49115987
 O      5   2   1     2.365459890590   165.26520901    77.67062279
 H     14   5   2     1.828452631207    99.15415944   353.30997950

---------------------
BASIS SET INFORMATION
---------------------
There are 3 groups of distinct atoms

 Group   1 Type C   : 19s6p2d contracted to 5s5p2d pattern {88111/21111/11}
 Group   2 Type H   : 5s2p contracted to 3s2p pattern {311/11}
 Group   3 Type O   : 19s6p2d contracted to 5s5p2d pattern {88111/21111/11}

Atom   0C    basis set group =>   1
Atom   1C    basis set group =>   1
Atom   2H    basis set group =>   2
Atom   3C    basis set group =>   1
Atom   4H    basis set group =>   2
Atom   5C    basis set group =>   1
Atom   6H    basis set group =>   2
Atom   7H    basis set group =>   2
Atom   8C    basis set group =>   1
Atom   9H    basis set group =>   2
Atom  10H    basis set group =>   2
Atom  11H    basis set group =>   2
Atom  12H    basis set group =>   2
Atom  13O    basis set group =>   3
Atom  14H    basis set group =>   2
---------------------------------
AUXILIARY/C BASIS SET INFORMATION
---------------------------------
There are 3 groups of distinct atoms

 Group   1 Type C   : 8s6p5d3f1g contracted to 8s6p5d3f1g pattern {11111111/111111/11111/111/1}
 Group   2 Type H   : 4s3p2d1f contracted to 4s3p2d1f pattern {1111/111/11/1}
 Group   3 Type O   : 8s6p5d3f1g contracted to 8s6p5d3f1g pattern {11111111/111111/11111/111/1}

Atom   0C    basis set group =>   1
Atom   1C    basis set group =>   1
Atom   2H    basis set group =>   2
Atom   3C    basis set group =>   1
Atom   4H    basis set group =>   2
Atom   5C    basis set group =>   1
Atom   6H    basis set group =>   2
Atom   7H    basis set group =>   2
Atom   8C    basis set group =>   1
Atom   9H    basis set group =>   2
Atom  10H    basis set group =>   2
Atom  11H    basis set group =>   2
Atom  12H    basis set group =>   2
Atom  13O    basis set group =>   3
Atom  14H    basis set group =>   2
--------------
CABS BASIS SET
--------------
There are 3 groups of distinct atoms

 Group   1 Type C   : 15s10p6d3f1g contracted to 15s10p6d3f1g pattern {111111111111111/1111111111/111111/111/1}
 Group   2 Type H   : 8s5p2d contracted to 8s5p2d pattern {11111111/11111/11}
 Group   3 Type O   : 15s10p6d3f1g contracted to 15s10p6d3f1g pattern {111111111111111/1111111111/111111/111/1}

Atom   0C    basis set group =>   1
Atom   1C    basis set group =>   1
Atom   2H    basis set group =>   2
Atom   3C    basis set group =>   1
Atom   4H    basis set group =>   2
Atom   5C    basis set group =>   1
Atom   6H    basis set group =>   2
Atom   7H    basis set group =>   2
Atom   8C    basis set group =>   1
Atom   9H    basis set group =>   2
Atom  10H    basis set group =>   2
Atom  11H    basis set group =>   2
Atom  12H    basis set group =>   2
Atom  13O    basis set group =>   3
Atom  14H    basis set group =>   2


           ************************************************************
           *        Program running with 8 parallel MPI-processes     *
           *              working on a common directory               *
           ************************************************************
------------------------------------------------------------------------------
                             ORCA STARTUP CALCULATIONS
------------------------------------------------------------------------------
------------------------------------------------------------------------------
                   ___                                                        
                  /   \      - P O W E R E D   B Y -                         
                 /     \                                                     
                 |  |  |   _    _      __       _____    __    __             
                 |  |  |  | |  | |    /  \     |  _  \  |  |  /  |          
                  \  \/   | |  | |   /    \    | | | |  |  | /  /          
                 / \  \   | |__| |  /  /\  \   | |_| |  |  |/  /          
                |  |  |   |  __  | /  /__\  \  |    /   |      \           
                |  |  |   | |  | | |   __   |  |    \   |  |\   \          
                \     /   | |  | | |  |  |  |  | |\  \  |  | \   \       
                 \___/    |_|  |_| |__|  |__|  |_| \__\ |__|  \__/        
                                                                              
                      - O R C A' S   B I G   F R I E N D -                    
                                      &                                       
                       - I N T E G R A L  F E E D E R -                       
                                                                              
 v1 FN, 2020, v2 2021, v3 2022-2024                                           
------------------------------------------------------------------------------


----------------------
SHARK INTEGRAL PACKAGE
----------------------

Number of atoms                             ...     15
Number of basis functions                   ...    297
Number of shells                            ...    153
Maximum angular momentum                    ...      2
Integral batch strategy                     ... SHARK/LIBINT Hybrid
RI-J (if used) integral strategy            ... SPLIT-RIJ (Revised 2003 algorithm where possible)
Printlevel                                  ...      1
Contraction scheme used                     ... PARTIAL GENERAL contraction
Prescreening option                         ... SCHWARTZ
   Thresh                                   ... 1.000e-10
   Tcut                                     ... 1.000e-11
   Tpresel                                  ... 1.000e-11 
Coulomb Range Separation                    ... NOT USED
Exchange Range Separation                   ... NOT USED
Multipole approximations                    ... NOT USED
Finite Nucleus Model                        ... NOT USED
CABS basis                                  ... AVAILABLE
   # of basis functions in CABS             ...    927
   # of shells in CABS                      ...    345
   Maximum angular momentum in CABS         ...      4
F12 Gamma exponent                          ...  0.900000
F12-Geminal                                 ...  6 primitives
l =0 ng=6 ofs=0
   a( 0) =     0.220850853  d( 0)=    -0.314424804 
   a( 1) =     1.004019154  d( 1)=    -0.303695753 
   a( 2) =     3.621217265  d( 2)=    -0.168069685 
   a( 3) =    12.162483048  d( 3)=    -0.098115813 
   a( 4) =    45.855331575  d( 4)=    -0.060246641 
   a( 5) =   254.234600970  d( 5)=    -0.037263542 
Auxiliary Coulomb fitting basis             ... NOT available
Auxiliary J/K fitting basis                 ... NOT available
Auxiliary Correlation fitting basis         ... AVAILABLE
   # of basis functions in Aux-C            ...    756
   # of shells in Aux-C                     ...    228
   Maximum angular momentum in Aux-C        ...      4
Auxiliary 'external' fitting basis          ... NOT available

Checking pre-screening integrals            ... done (  0.0 sec) Dimension = 153
Save PGC pre-screening integrals            ... done (  0.0 sec) Dimension = 153
Calculate PGC overlap integrals             ... done (  0.0 sec) Dimension = 117
Calculating pre-screening integrals (ORCA)  ... done (  0.0 sec) Dimension = 117
Shell pair information
Shell pair cut-off parameter TPreSel        ...   1.0e-11
Total number of shell pairs                 ...     11781
Shell pairs after pre-screening             ...      9840
Total number of primitive shell pairs       ...     15786
Primitive shell pairs kept                  ...     12078
          la=0 lb=0:   3281 shell pairs
          la=1 lb=0:   3822 shell pairs
          la=1 lb=1:   1092 shell pairs
          la=2 lb=0:   1021 shell pairs
          la=2 lb=1:    548 shell pairs
          la=2 lb=2:     76 shell pairs

Checking whether 4 symmetric matrices of dimension 297 fit in memory
:Max Core in MB      =   9000.00
 MB in use           =     63.67
 MB left             =   8936.33
 MB needed           =      1.35
 Data fit in memory  = YES
Calculating RI/C V-Matrix + Cholesky decomp.... done (  0.0 sec)
Calculating Nuclear repulsion               ... done (  0.0 sec) ENN=    226.800132823511 Eh

Diagonalization of the overlap matrix:
Smallest eigenvalue                        ... 6.411e-05
Time for diagonalization                   ...    0.006 sec
Threshold for overlap eigenvalues          ... 1.000e-07
Number of eigenvalues below threshold      ... 0
Time for construction of square roots      ...    0.003 sec
Total time needed                          ...    0.009 sec

-------------------
DFT GRID GENERATION
-------------------

General Integration Accuracy     IntAcc      ... 4.388
Radial Grid Type                 RadialGrid  ... OptM3 with GC (2021)
Angular Grid (max. ang.)         AngularGrid ... 4 (Lebedev-302)
Angular grid pruning method      GridPruning ... 4 (adaptive)
Weight generation scheme         WeightScheme... mBecke (2022)
Basis function cutoff            BFCut       ... 1.0000e-10
Integration weight cutoff        WCut        ... 1.0000e-14
Partially contracted basis set               ... off
Rotationally invariant grid construction     ... off
Angular grids for H and He will be reduced by one unit
Diffuse basis detected: some atoms will have their outermost
                        angular grid increased by 1.

Total number of grid points                  ...    66702
Total number of batches                      ...     1049
Average number of points per batch           ...       63
Average number of grid points per atom       ...     4447

---------------------
SHARK GRID GENERATION
---------------------

General Integration Accuracy     IntAcc      ... 4.388
Radial Grid Type                 RadialGrid  ... OptM3 with GC (2021)
Angular Grid (max. ang.)         AngularGrid ... 4 (Lebedev-302)
Angular grid pruning method      GridPruning ... 4 (adaptive)
Weight generation scheme         WeightScheme... mBecke (2022)
Basis function cutoff            BFCut       ... 1.0000e-10
Integration weight cutoff        WCut        ... 1.0000e-14
Partially contracted basis set               ... off
Rotationally invariant grid construction     ... off
Angular grids for H and He will be reduced by one unit
Diffuse basis detected: some atoms will have their outermost
                        angular grid increased by 1.
Steep s-basis detected: some atoms will have their radial
                        grid points doubled.

Total number of grid points                  ...   104662
Total number of batches                      ...     1644
Average number of points per batch           ...       63
Average number of grid points per atom       ...     6977
Grids setup in   0.7 sec
Initializing property integral containers    ... done (  0.0 sec)

SHARK setup successfully completed in   1.2 seconds

Maximum memory used throughout the entire STARTUP-calculation: 84.4 MB


           ************************************************************
           *        Program running with 8 parallel MPI-processes     *
           *              working on a common directory               *
           ************************************************************
-------------------------------------------------------------------------------
                                 ORCA GUESS
                   Start orbitals & Density for SCF / CASSCF
-------------------------------------------------------------------------------

------------
SCF SETTINGS
------------
Hamiltonian:
 Ab initio Hamiltonian  Method          .... Hartree-Fock(GTOs)


General Settings:
 Integral files         IntName         .... sp
 Hartree-Fock type      HFTyp           .... UHF
 Total Charge           Charge          ....    0
 Multiplicity           Mult            ....    2
 Number of Electrons    NEL             ....   47
 Basis Dimension        Dim             ....  261
 Nuclear Repulsion      ENuc            ....    226.8001328235 Eh

Convergence Acceleration:
 AO-DIIS                CNVDIIS         .... on
   Start iteration      DIISMaxIt       ....    12
   Startup error        DIISStart       ....  0.200000
   # of expansion vecs  DIISMaxEq       ....     5
   Bias factor          DIISBfac        ....   1.050
   Max. coefficient     DIISMaxC        ....  10.000
 MO-DIIS                CNVKDIIS        .... off
 Trust-Rad. Augm. Hess. CNVTRAH         .... auto
   Auto Start mean grad. ratio tolernc. ....  1.125000
   Auto Start start iteration           ....    50
   Auto Start num. interpolation iter.  ....    10
   Max. Number of Micro iterations      ....    24
   Max. Number of Macro iterations      .... Maxiter - #DIIS iter
   Number of Davidson start vectors     ....     2
   Converg. threshold    (grad. norm)   ....   5.000e-05
   Grad. Scal. Fac. for Micro threshold ....   0.100
   Minimum threshold for Micro iter.    ....   1.000e-02
   NR start threshold (gradient norm)   ....   1.000e-04
   Initial trust radius                 ....   0.400
   Minimum AH scaling param. (alpha)    ....   1.000
   Maximum AH scaling param. (alpha)    .... 1000.000
   Quad. conv. algorithm                .... NR
   White noise on init. David. guess    .... on
   Maximum white noise                  ....   0.010
   Pseudo random numbers                .... off
   Inactive MOs                         .... canonical
   Orbital update algorithm             .... Taylor
   Preconditioner                       .... Diag
   Full preconditioner red. dimension   ....   250
 SOSCF                 CNVSOSCF           .... on
   Start iteration     SOSCFMaxIt         ....   150
   Startup grad/error  SOSCFStart         ....  0.003300
   Hessian update      SOSCFHessUp        .... L-BFGS
   Autom. constraints  SOSCFAutoConstrain .... off
 Level Shifting         CNVShift        .... on
   Level shift para.    LevelShift      ....    0.2500
   Turn off err/grad.   ShiftErr        ....    0.0010
 Zerner damping         CNVZerner       .... off
 Static damping         CNVDamp         .... on
   Fraction old density DampFac         ....    0.7000
   Max. Damping (<1)    DampMax         ....    0.9800
   Min. Damping (>=0)   DampMin         ....    0.0000
   Turn off err/grad.   DampErr         ....    0.1000

SCF Procedure:
 Maximum # iterations   MaxIter         ....   125
 SCF integral mode      SCFMode         .... Direct
   Integral package                     .... SHARK and LIBINT hybrid scheme
 Reset frequency        DirectResetFreq ....    20
 Integral Threshold     Thresh          ....  1.000e-10 Eh
 Primitive CutOff       TCut            ....  1.000e-11 Eh

Convergence Tolerance:
 Convergence Check Mode ConvCheckMode   .... Total+1el-Energy
 Convergence forced     ConvForced      .... 1
 Energy Change          TolE            ....  1.000e-06 Eh
 1-El. energy change                    ....  1.000e-03 Eh
 Orbital Gradient       TolG            ....  5.000e-05
 Orbital Rotation angle TolX            ....  5.000e-05
 DIIS Error             TolErr          ....  1.000e-06

------------------------------
INITIAL GUESS: MODEL POTENTIAL
------------------------------
Loading Hartree-Fock densities                     ... done
Calculating cut-offs                               ... done
Initializing the effective Hamiltonian             ... done
Setting up the integral package (SHARK)            ... done
Starting the Coulomb interaction                   ... done (   0.0 sec)
Making the grid                                    ... done (   0.1 sec)
Mapping shells                                     ... done
Starting the XC term evaluation                    ... done (   0.0 sec)
Transforming the Hamiltonian                       ... done (   0.0 sec)
Diagonalizing the Hamiltonian                      ... done (   0.0 sec)
Back transforming the eigenvectors                 ... done (   0.0 sec)
Now organizing SCF variables                       ... done
                      ------------------
                      INITIAL GUESS DONE (   0.1 sec)
                      ------------------
             **** ENERGY FILE WAS UPDATED (sp.en.tmp) ****
Finished Guess after   1.6 sec
Maximum memory used throughout the entire GUESS-calculation: 17.8 MB


           ************************************************************
           *        Program running with 8 parallel MPI-processes     *
           *              working on a common directory               *
           ************************************************************

-------------------------------------------------------------------------------------------
                                      ORCA LEAN-SCF
                              memory conserving SCF solver
-------------------------------------------------------------------------------------------

----------------------------------------D-I-I-S--------------------------------------------
Iteration    Energy (Eh)           Delta-E    RMSDP     MaxDP     DIISErr   Damp  Time(sec)
-------------------------------------------------------------------------------------------
               ***  Starting incremental Fock matrix formation  ***
    1    -269.0744775373516404     0.00e+00  1.61e-03  1.36e-02  1.62e-01  0.700   1.6
    2    -269.1843686501381399    -1.10e-01  1.28e-03  1.00e-02  9.80e-02  0.700   1.5
                               ***Turning on AO-DIIS***
    3    -269.2512929958857057    -6.69e-02  8.25e-04  7.79e-03  6.20e-02  0.700   1.5
    4    -269.2950841852867825    -4.38e-02  2.08e-03  2.02e-02  4.89e-02  0.000   1.4
    5    -269.4010692660965560    -1.06e-01  4.80e-04  8.85e-03  2.13e-02  0.000   1.5
    6    -269.4046507672710504    -3.58e-03  4.54e-04  8.66e-03  1.33e-02  0.000   1.4
    7    -269.4072206059017844    -2.57e-03  3.67e-04  6.58e-03  1.05e-02  0.000   1.4
    8    -269.4088493389659789    -1.63e-03  3.07e-04  3.84e-03  7.00e-03  0.000   1.4
    9    -269.4098481580358566    -9.99e-04  2.57e-04  3.04e-03  5.15e-03  0.000   1.4
                              *** Initializing SOSCF ***
---------------------------------------S-O-S-C-F--------------------------------------
Iteration    Energy (Eh)           Delta-E    RMSDP     MaxDP     MaxGrad    Time(sec)
--------------------------------------------------------------------------------------
   10    -269.4104422764547735    -5.94e-04  1.88e-04  2.85e-03  3.19e-03     1.4
               *** Restarting incremental Fock matrix formation ***
   11    -269.4107348830015098    -2.93e-04  9.03e-05  1.47e-03  1.90e-03     1.6
   12    -269.4108418580211719    -1.07e-04  5.07e-04  9.50e-03  1.59e-03     1.3
   13    -269.4111890565785643    -3.47e-04  2.13e-04  5.19e-03  2.34e-03     1.4
   14    -269.4113301984208420    -1.41e-04  4.69e-04  1.19e-02  2.47e-03     1.3
   15    -269.4115633449274583    -2.33e-04  1.70e-04  3.89e-03  1.54e-03     1.4
   16    -269.4116588621985784    -9.55e-05  1.10e-04  1.73e-03  7.93e-04     1.3
   17    -269.4117086228025073    -4.98e-05  5.33e-05  7.28e-04  5.87e-04     1.3
   18    -269.4117228831133843    -1.43e-05  3.58e-05  4.42e-04  4.49e-04     1.3
   19    -269.4117279794310207    -5.10e-06  1.60e-05  2.26e-04  1.29e-04     1.2
   20    -269.4117292859608597    -1.31e-06  9.78e-06  1.36e-04  9.42e-05     1.2
   21    -269.4117297314296593    -4.45e-07  4.40e-06  5.07e-05  3.05e-05     1.2
                 **** Energy Check signals convergence ****

               *****************************************************
               *                     SUCCESS                       *
               *           SCF CONVERGED AFTER  21 CYCLES          *
               *****************************************************

             **** ENERGY FILE WAS UPDATED (sp.en.tmp) ****

----------------
TOTAL SCF ENERGY
----------------

Total Energy       :       -269.41172981334535 Eh           -7331.06587 eV

Components:
Nuclear Repulsion  :        226.80013282351055 Eh            6171.54537 eV
Electronic Energy  :       -496.21186263685593 Eh          -13502.61124 eV
One Electron Energy:       -814.78881585380043 Eh          -22171.53086 eV
Two Electron Energy:        318.57695321694450 Eh            8668.91962 eV

Virial components:
Potential Energy   :       -538.60407044887393 Eh          -14656.16186 eV
Kinetic Energy     :        269.19234063552858 Eh            7325.09599 eV
Virial Ratio       :          2.00081499041651

---------------
SCF CONVERGENCE
---------------

  Last Energy change         ...    4.4547e-07  Tolerance :   1.0000e-06
  Last MAX-Density change    ...    5.0717e-05  Tolerance :   1.0000e-05
  Last RMS-Density change    ...    4.3983e-06  Tolerance :   1.0000e-06
  Last DIIS Error            ...    3.1904e-03  Tolerance :   1.0000e-06
  Last Orbital Gradient      ...    3.0537e-05  Tolerance :   5.0000e-05
  Last Orbital Rotation      ...    8.9382e-05  Tolerance :   5.0000e-05


----------------------
UHF SPIN CONTAMINATION
----------------------

Expectation value of <S**2>     :     0.887624
Ideal value S*(S+1) for S=0.5   :     0.750000
Deviation                       :     0.137624

----------------
ORBITAL ENERGIES
----------------
                 SPIN UP ORBITALS
  NO   OCC          E(Eh)            E(eV) 
   0   1.0000     -20.615071      -560.9646 
   1   1.0000     -11.241025      -305.8839 
   2   1.0000     -11.228358      -305.5392 
   3   1.0000     -11.227380      -305.5125 
   4   1.0000     -11.224602      -305.4369 
   5   1.0000     -11.220469      -305.3245 
   6   1.0000      -1.383864       -37.6568 
   7   1.0000      -1.140823       -31.0434 
   8   1.0000      -0.974093       -26.5064 
   9   1.0000      -0.961157       -26.1544 
  10   1.0000      -0.794427       -21.6175 
  11   1.0000      -0.765130       -20.8203 
  12   1.0000      -0.703734       -19.1496 
  13   1.0000      -0.663653       -18.0589 
  14   1.0000      -0.641190       -17.4477 
  15   1.0000      -0.614457       -16.7202 
  16   1.0000      -0.558029       -15.1847 
  17   1.0000      -0.546818       -14.8797 
  18   1.0000      -0.535173       -14.5628 
  19   1.0000      -0.493291       -13.4231 
  20   1.0000      -0.489577       -13.3221 
  21   1.0000      -0.485808       -13.2195 
  22   1.0000      -0.431234       -11.7345 
  23   1.0000      -0.358753        -9.7622 
  24   0.0000       0.058580         1.5941 
  25   0.0000       0.060322         1.6414 
  26   0.0000       0.062792         1.7087 
  27   0.0000       0.072072         1.9612 
  28   0.0000       0.082929         2.2566 
  29   0.0000       0.090570         2.4645 
  30   0.0000       0.103517         2.8168 
  31   0.0000       0.110764         3.0141 
  32   0.0000       0.115177         3.1341 
  33   0.0000       0.128516         3.4971 
  34   0.0000       0.137623         3.7449 

                 SPIN DOWN ORBITALS
  NO   OCC          E(Eh)            E(eV) 
   0   1.0000     -20.581660      -560.0554 
   1   1.0000     -11.228804      -305.5513 
   2   1.0000     -11.227970      -305.5286 
   3   1.0000     -11.226477      -305.4880 
   4   1.0000     -11.224006      -305.4207 
   5   1.0000     -11.219316      -305.2931 
   6   1.0000      -1.264656       -34.4130 
   7   1.0000      -1.130284       -30.7566 
   8   1.0000      -0.969730       -26.3877 
   9   1.0000      -0.947235       -25.7756 
  10   1.0000      -0.790283       -21.5047 
  11   1.0000      -0.712173       -19.3792 
  12   1.0000      -0.669253       -18.2113 
  13   1.0000      -0.639736       -17.4081 
  14   1.0000      -0.620755       -16.8916 
  15   1.0000      -0.557356       -15.1664 
  16   1.0000      -0.534521       -14.5450 
  17   1.0000      -0.505418       -13.7531 
  18   1.0000      -0.491370       -13.3709 
  19   1.0000      -0.488492       -13.2926 
  20   1.0000      -0.485227       -13.2037 
  21   1.0000      -0.469673       -12.7805 
  22   1.0000      -0.352397        -9.5892 
  23   0.0000       0.047757         1.2995 
  24   0.0000       0.058596         1.5945 
  25   0.0000       0.062904         1.7117 
  26   0.0000       0.069557         1.8927 
  27   0.0000       0.073407         1.9975 
  28   0.0000       0.090888         2.4732 
  29   0.0000       0.094651         2.5756 
  30   0.0000       0.103889         2.8270 
  31   0.0000       0.112625         3.0647 
  32   0.0000       0.117761         3.2044 
  33   0.0000       0.129365         3.5202 
*Only the first 10 virtual orbitals were printed.

                    ********************************
                    * MULLIKEN POPULATION ANALYSIS *
                    ********************************

--------------------------------------------
MULLIKEN ATOMIC CHARGES AND SPIN POPULATIONS
--------------------------------------------
   0 C :   -0.221577   -0.473504
   1 C :   -0.255573    0.860880
   2 H :    0.149291    0.042222
   3 C :   -0.062729   -0.062935
   4 H :    0.165257   -0.197479
   5 C :   -0.225567    0.015835
   6 H :    0.114593    0.011918
   7 H :    0.097259    0.018397
   8 C :   -0.109606    0.083714
   9 H :    0.100772   -0.001070
  10 H :    0.110211    0.001110
  11 H :    0.106743   -0.012644
  12 H :    0.093334   -0.018471
  13 O :   -0.317635    0.777077
  14 H :    0.255228   -0.045052
Sum of atomic charges         :    0.0000000
Sum of atomic spin populations:    1.0000000

-----------------------------------------------------
MULLIKEN REDUCED ORBITAL CHARGES AND SPIN POPULATIONS
-----------------------------------------------------
CHARGE
  0 C s       :     3.168312  s :     3.168312
      pz      :     0.948248  p :     2.969639
      px      :     0.990656
      py      :     1.030735
      dz2     :     0.005506  d :     0.083626
      dxz     :     0.014362
      dyz     :     0.015819
      dx2y2   :     0.023712
      dxy     :     0.024227

  1 C s       :     3.236647  s :     3.236647
      pz      :     0.965648  p :     2.932910
      px      :     0.981854
      py      :     0.985408
      dz2     :     0.005143  d :     0.086016
      dxz     :     0.007839
      dyz     :     0.024714
      dx2y2   :     0.033423
      dxy     :     0.014898

  2 H s       :     0.821953  s :     0.821953
      pz      :     0.012176  p :     0.028757
      px      :     0.005030
      py      :     0.011550

  3 C s       :     2.927924  s :     2.927924
      pz      :     1.066978  p :     3.026938
      px      :     0.924053
      py      :     1.035906
      dz2     :     0.021471  d :     0.107867
      dxz     :     0.015002
      dyz     :     0.026893
      dx2y2   :     0.019141
      dxy     :     0.025360

  4 H s       :     0.742367  s :     0.742367
      pz      :     0.024564  p :     0.092376
      px      :     0.049179
      py      :     0.018634

  5 C s       :     3.062515  s :     3.062515
      pz      :     1.082090  p :     3.057695
      px      :     1.008701
      py      :     0.966904
      dz2     :     0.022358  d :     0.105357
      dxz     :     0.018504
      dyz     :     0.016126
      dx2y2   :     0.023619
      dxy     :     0.024750

  6 H s       :     0.851664  s :     0.851664
      pz      :     0.008215  p :     0.033743
      px      :     0.007992
      py      :     0.017536

  7 H s       :     0.868667  s :     0.868667
      pz      :     0.015442  p :     0.034073
      px      :     0.007919
      py      :     0.010712

  8 C s       :     2.977372  s :     2.977372
      pz      :     1.058703  p :     3.026268
      px      :     0.980301
      py      :     0.987263
      dz2     :     0.020837  d :     0.105966
      dxz     :     0.024239
      dyz     :     0.018420
      dx2y2   :     0.021808
      dxy     :     0.020662

  9 H s       :     0.866840  s :     0.866840
      pz      :     0.015795  p :     0.032388
      px      :     0.008821
      py      :     0.007772

 10 H s       :     0.856407  s :     0.856407
      pz      :     0.007847  p :     0.033382
      px      :     0.014931
      py      :     0.010603

 11 H s       :     0.859735  s :     0.859735
      pz      :     0.008156  p :     0.033522
      px      :     0.013930
      py      :     0.011436

 12 H s       :     0.873140  s :     0.873140
      pz      :     0.015536  p :     0.033526
      px      :     0.009316
      py      :     0.008674

 13 O s       :     3.880261  s :     3.880261
      pz      :     1.442227  p :     4.419586
      px      :     1.111278
      py      :     1.866081
      dz2     :     0.007654  d :     0.017788
      dxz     :     0.000643
      dyz     :     0.003588
      dx2y2   :     0.005460
      dxy     :     0.000443

 14 H s       :     0.677644  s :     0.677644
      pz      :     0.017740  p :     0.067128
      px      :     0.017804
      py      :     0.031584


SPIN
  0 C s       :    -0.059742  s :    -0.059742
      pz      :    -0.318174  p :    -0.420231
      px      :    -0.055165
      py      :    -0.046892
      dz2     :     0.001408  d :     0.006470
      dxz     :     0.000458
      dyz     :     0.003150
      dx2y2   :     0.000620
      dxy     :     0.000834

  1 C s       :     0.159282  s :     0.159282
      pz      :     0.323376  p :     0.708586
      px      :     0.333652
      py      :     0.051558
      dz2     :    -0.000937  d :    -0.006988
      dxz     :    -0.002709
      dyz     :    -0.002751
      dx2y2   :     0.000492
      dxy     :    -0.001083

  2 H s       :     0.045669  s :     0.045669
      pz      :    -0.003581  p :    -0.003446
      px      :     0.000363
      py      :    -0.000229

  3 C s       :    -0.023051  s :    -0.023051
      pz      :    -0.018282  p :    -0.047639
      px      :    -0.011747
      py      :    -0.017611
      dz2     :     0.000922  d :     0.007756
      dxz     :     0.000569
      dyz     :     0.004434
      dx2y2   :     0.001802
      dxy     :     0.000029

  4 H s       :    -0.245710  s :    -0.245710
      pz      :     0.003078  p :     0.048232
      px      :     0.044689
      py      :     0.000464

  5 C s       :     0.002699  s :     0.002699
      pz      :     0.001591  p :     0.012912
      px      :     0.011853
      py      :    -0.000532
      dz2     :    -0.000192  d :     0.000224
      dxz     :    -0.000273
      dyz     :     0.000386
      dx2y2   :    -0.000248
      dxy     :     0.000550

  6 H s       :     0.012122  s :     0.012122
      pz      :    -0.000057  p :    -0.000204
      px      :    -0.000116
      py      :    -0.000031

  7 H s       :     0.018791  s :     0.018791
      pz      :    -0.000002  p :    -0.000395
      px      :    -0.000120
      py      :    -0.000273

  8 C s       :     0.023353  s :     0.023353
      pz      :     0.019664  p :     0.066626
      px      :     0.040935
      py      :     0.006028
      dz2     :    -0.000861  d :    -0.006265
      dxz     :    -0.005471
      dyz     :     0.000227
      dx2y2   :    -0.000202
      dxy     :     0.000043

  9 H s       :    -0.001298  s :    -0.001298
      pz      :     0.000060  p :     0.000228
      px      :     0.000214
      py      :    -0.000045

 10 H s       :     0.000827  s :     0.000827
      pz      :     0.000030  p :     0.000283
      px      :     0.000267
      py      :    -0.000014

 11 H s       :    -0.013511  s :    -0.013511
      pz      :     0.000008  p :     0.000867
      px      :     0.001037
      py      :    -0.000178

 12 H s       :    -0.019348  s :    -0.019348
      pz      :     0.000154  p :     0.000877
      px      :     0.000854
      py      :    -0.000130

 13 O s       :     0.013959  s :     0.013959
      pz      :     0.029557  p :     0.763517
      px      :     0.727242
      py      :     0.006719
      dz2     :    -0.000217  d :    -0.000398
      dxz     :     0.000683
      dyz     :     0.000377
      dx2y2   :    -0.001336
      dxy     :     0.000095

 14 H s       :    -0.044849  s :    -0.044849
      pz      :    -0.001039  p :    -0.000202
      px      :     0.003177
      py      :    -0.002341



                     *******************************
                     * LOEWDIN POPULATION ANALYSIS *
                     *******************************

-------------------------------------------
LOEWDIN ATOMIC CHARGES AND SPIN POPULATIONS
-------------------------------------------
   0 C :   -0.024041   -0.208285
   1 C :    0.029839    0.466426
   2 H :    0.014853   -0.010652
   3 C :   -0.014589    0.022523
   4 H :   -0.149506    0.068524
   5 C :    0.004442    0.012702
   6 H :    0.017945    0.004216
   7 H :    0.019288    0.008937
   8 C :   -0.014693    0.007255
   9 H :    0.017949    0.000193
  10 H :    0.009050    0.001753
  11 H :    0.013000   -0.004869
  12 H :    0.015683   -0.008610
  13 O :    0.110638    0.639641
  14 H :   -0.049857    0.000245

----------------------------------------------------
LOEWDIN REDUCED ORBITAL CHARGES AND SPIN POPULATIONS
----------------------------------------------------
CHARGE
  0 C s       :     2.730105  s :     2.730105
      pz      :     0.842138  p :     2.882495
      px      :     0.985859
      py      :     1.054498
      dz2     :     0.033263  d :     0.411440
      dxz     :     0.064367
      dyz     :     0.038214
      dx2y2   :     0.145491
      dxy     :     0.130107

  1 C s       :     2.735832  s :     2.735832
      pz      :     0.859145  p :     2.814299
      px      :     0.910173
      py      :     1.044981
      dz2     :     0.035944  d :     0.420031
      dxz     :     0.020756
      dyz     :     0.084250
      dx2y2   :     0.159177
      dxy     :     0.119905

  2 H s       :     0.796663  s :     0.796663
      pz      :     0.052569  p :     0.188484
      px      :     0.052868
      py      :     0.083047

  3 C s       :     2.681215  s :     2.681215
      pz      :     1.009188  p :     2.923159
      px      :     0.935435
      py      :     0.978536
      dz2     :     0.068595  d :     0.410214
      dxz     :     0.056182
      dyz     :     0.098098
      dx2y2   :     0.089419
      dxy     :     0.097921

  4 H s       :     0.659227  s :     0.659227
      pz      :     0.070233  p :     0.490279
      px      :     0.345267
      py      :     0.074779

  5 C s       :     2.688989  s :     2.688989
      pz      :     1.011348  p :     2.908980
      px      :     0.956146
      py      :     0.941486
      dz2     :     0.074820  d :     0.397589
      dxz     :     0.072664
      dyz     :     0.061508
      dx2y2   :     0.092942
      dxy     :     0.095655

  6 H s       :     0.795531  s :     0.795531
      pz      :     0.066807  p :     0.186524
      px      :     0.049036
      py      :     0.070680

  7 H s       :     0.791885  s :     0.791885
      pz      :     0.088607  p :     0.188827
      px      :     0.047366
      py      :     0.052854

  8 C s       :     2.683234  s :     2.683234
      pz      :     1.008361  p :     2.920156
      px      :     0.958473
      py      :     0.953323
      dz2     :     0.068884  d :     0.411302
      dxz     :     0.080512
      dyz     :     0.072414
      dx2y2   :     0.095630
      dxy     :     0.093863

  9 H s       :     0.793062  s :     0.793062
      pz      :     0.091161  p :     0.188989
      px      :     0.049849
      py      :     0.047980

 10 H s       :     0.801712  s :     0.801712
      pz      :     0.063780  p :     0.189238
      px      :     0.068990
      py      :     0.056468

 11 H s       :     0.798904  s :     0.798904
      pz      :     0.066436  p :     0.188096
      px      :     0.062539
      py      :     0.059120

 12 H s       :     0.793940  s :     0.793940
      pz      :     0.088821  p :     0.190376
      px      :     0.051972
      py      :     0.049583

 13 O s       :     3.425861  s :     3.425861
      pz      :     1.500976  p :     4.414307
      px      :     1.138644
      py      :     1.774687
      dz2     :     0.018828  d :     0.049195
      dxz     :     0.001382
      dyz     :     0.006986
      dx2y2   :     0.021852
      dxy     :     0.000147

 14 H s       :     0.668086  s :     0.668086
      pz      :     0.185165  p :     0.381771
      px      :     0.065675
      py      :     0.130931


SPIN
  0 C s       :    -0.011726  s :    -0.011726
      pz      :    -0.219224  p :    -0.246109
      px      :    -0.018531
      py      :    -0.008353
      dz2     :     0.002926  d :     0.049550
      dxz     :     0.006433
      dyz     :     0.016085
      dx2y2   :     0.016023
      dxy     :     0.008082

  1 C s       :     0.047289  s :     0.047289
      pz      :     0.226455  p :     0.461470
      px      :     0.214691
      py      :     0.020325
      dz2     :    -0.002322  d :    -0.042333
      dxz     :    -0.005839
      dyz     :    -0.016896
      dx2y2   :    -0.013751
      dxy     :    -0.003525

  2 H s       :     0.013024  s :     0.013024
      pz      :    -0.018862  p :    -0.023676
      px      :    -0.001490
      py      :    -0.003324

  3 C s       :    -0.001007  s :    -0.001007
      pz      :    -0.003139  p :    -0.011065
      px      :    -0.003286
      py      :    -0.004640
      dz2     :     0.004300  d :     0.034594
      dxz     :     0.003214
      dyz     :     0.015860
      dx2y2   :     0.008289
      dxy     :     0.002930

  4 H s       :    -0.075830  s :    -0.075830
      pz      :     0.012361  p :     0.144354
      px      :     0.132934
      py      :    -0.000941

  5 C s       :     0.001987  s :     0.001987
      pz      :     0.000637  p :     0.008772
      px      :     0.008773
      py      :    -0.000638
      dz2     :    -0.000097  d :     0.001944
      dxz     :    -0.000428
      dyz     :     0.000579
      dx2y2   :     0.001367
      dxy     :     0.000522

  6 H s       :     0.005525  s :     0.005525
      pz      :    -0.000188  p :    -0.001309
      px      :    -0.000419
      py      :    -0.000701

  7 H s       :     0.008929  s :     0.008929
      pz      :     0.000371  p :     0.000008
      px      :    -0.000190
      py      :    -0.000173

  8 C s       :     0.004702  s :     0.004702
      pz      :     0.004436  p :     0.026722
      px      :     0.019628
      py      :     0.002659
      dz2     :    -0.003298  d :    -0.024169
      dxz     :    -0.018714
      dyz     :    -0.000278
      dx2y2   :    -0.001051
      dxy     :    -0.000830

  9 H s       :    -0.000328  s :    -0.000328
      pz      :     0.000091  p :     0.000521
      px      :     0.000493
      py      :    -0.000064

 10 H s       :     0.000656  s :     0.000656
      pz      :     0.000049  p :     0.001097
      px      :     0.001034
      py      :     0.000014

 11 H s       :    -0.006326  s :    -0.006326
      pz      :     0.000240  p :     0.001457
      px      :     0.001148
      py      :     0.000070

 12 H s       :    -0.009304  s :    -0.009304
      pz      :    -0.000238  p :     0.000694
      px      :     0.000857
      py      :     0.000075

 13 O s       :     0.016582  s :     0.016582
      pz      :     0.015555  p :     0.628334
      px      :     0.604072
      py      :     0.008706
      dz2     :    -0.001895  d :    -0.005274
      dxz     :     0.000032
      dyz     :    -0.000375
      dx2y2   :    -0.003086
      dxy     :     0.000050

 14 H s       :    -0.021661  s :    -0.021661
      pz      :     0.002229  p :     0.021905
      px      :     0.023064
      py      :    -0.003388



                      *****************************
                      * MAYER POPULATION ANALYSIS *
                      *****************************

  NA   - Mulliken gross atomic population
  ZA   - Total nuclear charge
  QA   - Mulliken gross atomic charge
  VA   - Mayer's total valence
  BVA  - Mayer's bonded valence
  FA   - Mayer's free valence

  ATOM       NA         ZA         QA         VA         BVA        FA
  0 C      6.2216     6.0000    -0.2216     4.0150     3.9025     0.1126
  1 C      6.2556     6.0000    -0.2556     4.1254     3.8281     0.2973
  2 H      0.8507     1.0000     0.1493     0.9739     0.9717     0.0021
  3 C      6.0627     6.0000    -0.0627     4.0246     4.0226     0.0019
  4 H      0.8347     1.0000     0.1653     1.0959     1.0271     0.0688
  5 C      6.2256     6.0000    -0.2256     4.2313     4.2309     0.0004
  6 H      0.8854     1.0000     0.1146     1.0003     1.0002     0.0001
  7 H      0.9027     1.0000     0.0973     1.0110     1.0106     0.0004
  8 C      6.1096     6.0000    -0.1096     4.0959     4.0928     0.0031
  9 H      0.8992     1.0000     0.1008     1.0088     1.0088     0.0000
 10 H      0.8898     1.0000     0.1102     0.9970     0.9969     0.0000
 11 H      0.8933     1.0000     0.1067     0.9974     0.9972     0.0002
 12 H      0.9067     1.0000     0.0933     1.0105     1.0101     0.0004
 13 O      8.3176     8.0000    -0.3176     1.8151     1.2852     0.5299
 14 H      0.7448     1.0000     0.2552     0.9685     0.9660     0.0025

  Mayer bond orders larger than 0.100000
B(  0-C ,  1-C ) :   1.8811 B(  0-C ,  2-H ) :   0.9529 B(  0-C ,  8-C ) :   1.0304 
B(  1-C ,  3-C ) :   1.0523 B(  1-C ,  4-H ) :   0.7083 B(  3-C ,  5-C ) :   1.0505 
B(  3-C ,  6-H ) :   0.9625 B(  3-C ,  7-H ) :   0.9365 B(  4-H , 13-O ) :   0.2838 
B(  5-C ,  8-C ) :   1.0890 B(  5-C ,  9-H ) :   0.9827 B(  5-C , 10-H ) :   0.9767 
B(  8-C , 11-H ) :   0.9723 B(  8-C , 12-H ) :   0.9545 B( 13-O , 14-H ) :   0.9325 


-------
TIMINGS
-------

Total SCF time: 0 days 0 hours 0 min 31 sec 

Total time                  ....      31.565 sec
Sum of individual times     ....      30.472 sec  ( 96.5%)

SCF preparation             ....       1.436 sec  (  4.5%)
Fock matrix formation       ....      28.168 sec  ( 89.2%)
  Startup                   ....       0.015 sec  (  0.1% of F)
  Coulomb+Exchange Fock     ....      29.152 sec  (103.5% of F)
Diagonalization             ....       0.000 sec  (  0.0%)
Density matrix formation    ....       0.113 sec  (  0.4%)
Total Energy calculation    ....       0.046 sec  (  0.1%)
Population analysis         ....       0.025 sec  (  0.1%)
Orbital Transformation      ....       0.055 sec  (  0.2%)
Orbital Orthonormalization  ....       0.000 sec  (  0.0%)
DIIS solution               ....       0.350 sec  (  1.1%)
SOSCF solution              ....       0.277 sec  (  0.9%)
Finished LeanSCF after  31.6 sec

Maximum memory used throughout the entire LEANSCF-calculation: 20.9 MB


           ************************************************************
           *        Program running with 8 parallel MPI-processes     *
           *              working on a common directory               *
           ************************************************************

------------------------------------------------------------------------------
                         ORCA PROPERTY INTEGRAL CALCULATIONS
------------------------------------------------------------------------------

GBWName                                   ... sp.gbw
Number of atoms                           ...     15
Number of basis functions                 ...    297
Max core memory                           ...   9000 MB

Dipole integrals                          ... YES
Quadrupole integrals                      ...  NO
Linear momentum integrals                 ... YES
Angular momentum integrals                ... YES
Higher moments length integrals           ...  NO
Higher moments velocity integrals         ...  NO
Kinetic energy integrals                  ...  NO
GIAO right hand sides                     ...  NO
GIAO dipole derivative integrals          ...  NO
SOC integrals                             ...  NO
EPR diamagnetic integrals (GIAO)          ...  NO
EPR gauge integrals                       ...  NO
Field gradient integrals                  ...  NO (   0 nuclei)
Spin-dipole/Fermi contact integrals       ...  NO (   0 nuclei)
Contact density integrals                 ...  NO (   0 nuclei)
Nucleus-orbit integrals                   ...  NO (   0 nuclei)
Geometric perturbations                   ...  NO (  15 nuclei)

Choice of electric origin   ... Center of mass
Position of electric origin ... ( -0.0852, -0.0123, -0.0205) 
Choice of magnetic origin   ... GIAO
Position of magnetic origin ... (  0.0000,  0.0000,  0.0000) 

Calculating integrals                     ... Electric Dipole (Length)     done (  0.0 sec)
Calculating integrals                     ... Linear Momentum              done (  0.0 sec)
Calculating integrals                     ... Angular Momentum  (ElOri)    done (  0.0 sec)

Property integrals calculated in   0.0 sec

Maximum memory used throughout the entire PROPINT-calculation: 18.7 MB


           ************************************************************
           *        Program running with 8 parallel MPI-processes     *
           *              working on a common directory               *
           ************************************************************


--------------------------------------------------------------------------------
                             ORCA-MATRIX DRIVEN CI
--------------------------------------------------------------------------------

--------------------------------
AUTOMATIC CHOICE OF INCORE LEVEL
--------------------------------

Memory available                           ...   4500.00 MB
Memory needed for S+T                      ...    219.84 MB
Memory needed for J+K                      ...    440.30 MB
Memory needed for DIIS                     ...   3077.74 MB
Memory needed for 3-ext                    ...   1828.13 MB
Memory needed for 4-ext                    ...  12085.99 MB
Memory needed for triples                  ...    507.81 MB
 -> Final InCoreLevel    ... 3
 -> check shows that triples correction can be computed


Wavefunction type
-----------------
Correlation treatment                      ...      CCSD     
Single excitations                         ... ON
Orbital optimization                       ... OFF
Calculation of Z vector                    ... OFF
Calculation of Brueckner orbitals          ... OFF
Perturbative triple excitations            ... ON
Calculation of F12 correction              ... ON
   Using RI for F12 correction             ... ON
Frozen core treatment                      ... chemical core (12 el)
Reference Wavefunction                     ... UHF
  Alpha-MOs occ    :     6 ...   23 ( 18 MO's/ 18 electrons)
  Beta-MOs occ     :     6 ...   22 ( 17 MO's/ 17 electrons)
  Alpha-MOs virt   :    24 ...  260 (237 MO's              )
  Beta-MOs virt    :    23 ...  260 (238 MO's              )
Number of AO's                             ...    261
Number of electrons                        ...     47
Number of correlated electrons             ...     35

Algorithmic settings
--------------------
Integral transformation                    ... Separate K and J transformations
K(C) Formation                             ... AO-EXCHANGE STORED
Maximum number of iterations               ...        50
Convergence tolerance (max. residuum)      ... 2.500e-05
Level shift for amplitude update           ... 2.000e-01
Maximum number of DIIS vectors             ...         7
DIIS turned on at iteration                ...         0
Damping before turning on DIIS             ...     0.500
Damping after turning on DIIS              ...     0.000
Pair specific amplitude update             ... OFF
Natural orbital iterations                 ... OFF
Perturbative natural orbital generation    ... OFF
Printlevel                                 ... 2

Memory handling:
----------------
Maximum memory for working arrays          ...   4500 MB
Data storage in matrix containers          ... UNCOMPRESSED
Data type for integral storage             ... DOUBLE
In-Core Storage of quantities:
   Amplitudes+Sigma Vector      ... YES
   J+K operators                ... YES
   DIIS vectors                 ... YES
   3-external integrals         ... NO
   4-external integrals         ... NO


Initializing the integral package          ... done
Warning: reference  - re-canonicalizations have been set to INT 1 VIRT 1
Fock densities were made 
Making Fock matrix and reference energy:

--------------------------
UNRESTRICTED FOCK OPERATOR
--------------------------

Recanonicalizing the internal orbitals
Recanonicalizing the virtual orbitals
Storing new orbitals
Time needed for Fock operator              ...            2.354 sec
Reference energy                           ...   -269.411729819

-------------------------
SHARK HALF TRANSFORMATION
-------------------------

Number of basis functions                ...    261
Number of operators                      ...      2
   Operator  0:    6-  23

   Operator  1:    6-  22

Integral generator used                  ... SHARK
Contraction scheme used                  ... SEGMENTED CONTRACTION
MaxCore in resort                        ...   9000 MB

Half transformed integrals for op=   0   ... sp.SHARK_MNPQ0.tmp
Resorted half transformed integrals      ... sp._PQMN_0.tmp
Half transformed integrals for op=   1   ... sp.SHARK_MNPQ1.tmp
Resorted half transformed integrals      ... sp._PQMN_1.tmp
Starting integral generation + half trafo... 
Half trafo (segmented) done. Total time =  4.3 sec. integrals=  3.2 sec trafo=  0.9 sec
Starting integral resorting              ... done (  0.3 sec)

SHARK half integral transformation done. Total time =  4.6 sec.

----------------------------------
J-TRAFO SECOND HALF TRANSFORMATION
----------------------------------

Generate (ij|kl)                        ... NO
Generate (ij|ka)                        ... YES
Generate (ij|ab)                        ... YES
Generate (ia|bc)                        ... NO
Generate (ab|cd)                        ... NO
Generate (pq|rs)                        ... NO

Number of operators                     ... 2
   Operator 0                           ...    6-  23 to   24- 260
   PQMN-Container name                  ... sp._PQMN_0.tmp
   IJKA-Container name    op=0,0        ... sp._IJKA_0.tmp
   IJAB-Container name    op=0,0        ... sp._IJAB_0.tmp
   IJKA-Container name    op=0,1        ... sp._IJKA_2.tmp
   IJAB-Container name    op=0,1        ... sp._IJAB_2.tmp
   Operator 1                           ...    6-  22 to   23- 260
   PQMN-Container name                  ... sp._PQMN_1.tmp
   IJKA-Container name    op=1,0        ... sp._IJKA_3.tmp
   IJAB-Container name    op=1,0        ... sp._IJAB_3.tmp
   IJKA-Container name    op=1,1        ... sp._IJKA_1.tmp
   IJAB-Container name    op=1,1        ... sp._IJAB_1.tmp

Starting integral transformations       ... done
Completed Coulomb integral formation in   0.1 sec


-------------------------
SHARK HALF TRANSFORMATION (Exchange order)
-------------------------

Number of basis functions                   ...    261
Number of operators                         ...      2
   Operator  0:    6-  23 (p-index in (p*|q*))
   Operator  0:    6- 260 (q-index in (p*|q*)
   Operator  1:    6-  22 (p-index in (p*|q*))
   Operator  1:    6- 260 (q-index in (p*|q*)
Integral generator used                     ... SHARK
Contraction scheme used                     ... SEGMENTED CONTRACTION
MaxCore in resort                           ...   9000 MB

Half transformed integrals for op=   0      ... sp.SHARK_MNPQ0.tmp
Resorted half transformed integrals         ... sp._PMQN_0.tmp
Half transformed integrals for op=   1      ... sp.SHARK_MNPQ1.tmp
Resorted half transformed integrals         ... sp._PMQN_1.tmp
Half transformed integrals for op=0/1       ... sp.SHARK_MNPQ01.tmp
Resorted half transformed integrals         ... sp._PMQN_2.tmp
Half transformed integrals for op=1/0       ... sp.SHARK_MNPQ10.tmp
Resorted half transformed integrals         ... sp._PMQN_3.tmp

Half trafo (segmented) done. Total time = 24.6 sec. integrals=  5.0 sec trafo= 11.8 sec

----------------------
SHARK INTEGRAL SORTING (Exchange)
----------------------

Input container                             ... sp.SHARK_MNPQ0.tmp
Output container                            ... sp._PMQN_0.tmp
Range of AO-indices                         ...    0 -  260
Range of bra indices i                      ...    6 -   23
Range of ket indices j                      ...    6 -  260
Symmetric i,j range                         ... NO
Number of (i,j) pairs generated             ... 4590
Max Core memory in MB                       ...   9000

Available core memory in MB                 ...   8902.51
MB needed for one item                      ...      0.52
Fixed MB needed                             ...      0.00
Number of items                             ...       574
Number of batches                           ...         1
Items treated per batch                     ...       574
Batch   0                                   ...      0-   573 (   574)
   => Closing output file and leaving

----------------------
SHARK INTEGRAL SORTING (Exchange)
----------------------

Input container                             ... sp.SHARK_MNPQ1.tmp
Output container                            ... sp._PMQN_1.tmp
Range of AO-indices                         ...    0 -  260
Range of bra indices i                      ...    6 -   22
Range of ket indices j                      ...    6 -  260
Symmetric i,j range                         ... NO
Number of (i,j) pairs generated             ... 4335
Max Core memory in MB                       ...   9000

Available core memory in MB                 ...   8903.30
MB needed for one item                      ...      0.52
Fixed MB needed                             ...      0.00
Number of items                             ...       542
Number of batches                           ...         1
Items treated per batch                     ...       542
Batch   0                                   ...      0-   541 (   542)
   => Closing output file and leaving

----------------------
SHARK INTEGRAL SORTING (Exchange)
----------------------

Input container                             ... sp.SHARK_MNPQ01.tmp
Output container                            ... sp._PMQN_2.tmp
Range of AO-indices                         ...    0 -  260
Range of bra indices i                      ...    6 -   23
Range of ket indices j                      ...    6 -  260
Symmetric i,j range                         ... NO
Number of (i,j) pairs generated             ... 4590
Max Core memory in MB                       ...   9000

Available core memory in MB                 ...   8904.07
MB needed for one item                      ...      0.52
Fixed MB needed                             ...      0.00
Number of items                             ...       574
Number of batches                           ...         1
Items treated per batch                     ...       574
Batch   0                                   ...      0-   573 (   574)
   => Closing output file and leaving

----------------------
SHARK INTEGRAL SORTING (Exchange)
----------------------

Input container                             ... sp.SHARK_MNPQ10.tmp
Output container                            ... sp._PMQN_3.tmp
Range of AO-indices                         ...    0 -  260
Range of bra indices i                      ...    6 -   22
Range of ket indices j                      ...    6 -  260
Symmetric i,j range                         ... NO
Number of (i,j) pairs generated             ... 4335
Max Core memory in MB                       ...   9000

Available core memory in MB                 ...   8904.86
MB needed for one item                      ...      0.52
Fixed MB needed                             ...      0.00
Number of items                             ...       542
Number of batches                           ...         1
Items treated per batch                     ...       542
Batch   0                                   ...      0-   541 (   542)
   => Closing output file and leaving
done (  4.6 sec)

SHARK half integral transformation done. Total time = 29.3 sec.

----------------------------------
K-TRAFO SECOND HALF TRANSFORMATION
----------------------------------

Generate (ik|jl)                        ... YES
Generate (ik|ja)                        ... YES
Generate (ia|jb)                        ... YES
Generate (ib|ac)                        ... YES
Generate (ac|bd)                        ... NO
Generate (pr|qs)                        ... NO

Number of operators                     ... 2
   Operator 0                           ...    6-  23 to   24- 260
   Operator 1                           ...    6-  22 to   23- 260

Starting integral transformations       ... done
Completed Exchange integral formation in   3.3 sec


------------------------------
Initializing F12 data (SHARK)
------------------------------

Mapping basis set                  ... done
Dimension of the orbital basis set  = 261
Dimension of the CABS basis set     = 927
Dimension of the AUX basis set      = 756
Threshold for CABS orthogonalization = 1.000e-08
Test shows that OBS-bases are identical for ORCA and SHARK (good)
Test shows that CABS-bases are identical for ORCA and SHARK (good)
Will use an exponential correlation factor -Exp(-gamma r12)/gamma (gamma= 0.900) fit to 6 Gaussians 
Correlation factor:   
  NGauss  :          6      
  Gaussian expansion: 
    a( 0)=    0.1948458954898069  d( 0)=   -0.3837757042467722 
    a( 1)=    0.9387038354476187  d( 1)=   -0.3334018173527373 
    a( 2)=    3.4610351718196344  d( 2)=   -0.1753946778698117 
    a( 3)=   11.7049811259564009  d( 3)=   -0.1006409547412648 
    a( 4)=   44.2276114110074730  d( 4)=   -0.0614475918190023 
    a( 5)=  245.3721697105246733  d( 5)=   -0.0379425511812079 
Calculating one-electron matrices                       ... (SHARK)done (      0.1 sec)
Calculating pre-screening matrices:                     ... 
     (LIBINT-0)       .... 1/r12 done          (      0.1 sec)
     (LIBINT-1)       .... f12/r12 done        (      0.1 sec)
     (LIBINT-2)       .... f12 done            (      0.0 sec)
     (LIBINT-3)       .... f12^2 done          (      0.1 sec)
     (LIBINT-4)       .... [f12,[T1,f12]] done (      0.1 sec)
                                                        ... done (      0.4 sec)
Making CABS spaces                                      ... done (      0.1 sec)
Calculating 2-index 2-center F12 integrals              ... 
Two index explicit correlation integrals  op=0          ...(SHARK-0) done (      0.0 sec)  Metric   done (      0.0 sec)
Two index explicit correlation integrals  op=1          ...(SHARK-1) done (      0.0 sec)  Metric   done (      0.0 sec)
Two index explicit correlation integrals  op=2          ...(SHARK-2) done (      0.0 sec)  Metric   done (      0.0 sec)
Two index explicit correlation integrals  op=3          ...(SHARK-3) done (      0.0 sec)  Metric   done (      0.0 sec)
Two index explicit correlation integrals  op=4          ...(SHARK-4) done (      0.0 sec)  Metric   done (      0.1 sec)
                                                                     done (      0.2 sec)

-----------------------
SPIN UNRESTRICTED GUESS
-----------------------

Spin-components of the MP2 energy:
EMP2(aa)=     -0.125699654
EMP2(bb)=     -0.115536222
EMP2(ab)=     -0.738733184

Initial guess performed in     0.539 sec
E(0)                                       ...   -269.411729819
E(MP2)                                     ...     -0.979969059
Initial E(tot)                             ...   -270.391698878
<T|T>                                      ...      0.313191700
Number of pairs included                   ... 595

------------------------------------------------
                  UHF COUPLED CLUSTER ITERATIONS
------------------------------------------------

Number of amplitudes to be optimized       ...     25413036

Iter       E(tot)           E(Corr)          Delta-E          Residual     Time      <S|S>**1/2
  0   -270.391698884     -0.979969065     -0.000000006      0.019868739   68.01      0.000055174
                           *** Turning on DIIS ***
  1   -270.413453433     -1.001723614     -0.021754549      0.006259303   71.30      0.056927780
  2   -270.439505876     -1.027776057     -0.026052443      0.005492525   72.66      0.076582142
  3   -270.448046731     -1.036316912     -0.008540855      0.004121487   73.49      0.099248417
  4   -270.451008356     -1.039278538     -0.002961626      0.002786633   73.34      0.117681986
  5   -270.452383806     -1.040653987     -0.001375449      0.001527474   73.46      0.133668378
[...]
      dz2     :     0.042916  d :     0.436155
      dxz     :     0.025356
      dyz     :     0.084192
      dx2y2   :     0.159065
      dxy     :     0.124625
  2 H s       :     0.781213  s :     0.781213
      pz      :     0.053325  p :     0.196166
      px      :     0.055921
      py      :     0.086920
  3 C s       :     2.686166  s :     2.686166
      pz      :     1.010845  p :     2.909144
      px      :     0.924778
      py      :     0.973521
      dz2     :     0.070871  d :     0.425069
      dxz     :     0.061720
      dyz     :     0.099062
      dx2y2   :     0.092337
      dxy     :     0.101079
  4 H s       :     0.636676  s :     0.636676
      pz      :     0.074704  p :     0.507151
      px      :     0.348582
      py      :     0.083865
  5 C s       :     2.692967  s :     2.692967
      pz      :     1.013257  p :     2.897613
      px      :     0.948550
      py      :     0.935807
      dz2     :     0.076943  d :     0.413720
      dxz     :     0.075937
      dyz     :     0.066147
      dx2y2   :     0.095619
      dxy     :     0.099073
  6 H s       :     0.777806  s :     0.777806
      pz      :     0.069765  p :     0.196247
      px      :     0.052185
      py      :     0.074296
  7 H s       :     0.773513  s :     0.773513
      pz      :     0.092029  p :     0.198680
      px      :     0.050438
      py      :     0.056214
  8 C s       :     2.687676  s :     2.687676
      pz      :     1.009294  p :     2.907801
      px      :     0.950916
      py      :     0.947591
      dz2     :     0.071164  d :     0.426056
      dxz     :     0.082592
      dyz     :     0.076521
      dx2y2   :     0.098109
      dxy     :     0.097670
  9 H s       :     0.776084  s :     0.776084
      pz      :     0.094645  p :     0.199013
      px      :     0.053009
      py      :     0.051359
 10 H s       :     0.784133  s :     0.784133
      pz      :     0.066999  p :     0.199373
      px      :     0.072312
      py      :     0.060062
 11 H s       :     0.781285  s :     0.781285
      pz      :     0.069412  p :     0.198161
      px      :     0.066055
      py      :     0.062694
 12 H s       :     0.775538  s :     0.775538
      pz      :     0.092204  p :     0.200339
      px      :     0.055078
      py      :     0.053057
 13 O s       :     3.414999  s :     3.414999
      pz      :     1.478621  p :     4.425169
      px      :     1.202263
      py      :     1.744285
      dz2     :     0.024348  d :     0.075229
      dxz     :     0.006684
      dyz     :     0.013262
      dx2y2   :     0.024850
      dxy     :     0.006085
 14 H s       :     0.671877  s :     0.671877
      pz      :     0.187905  p :     0.402721
      px      :     0.075400
      py      :     0.139417

SPIN
  0 C s       :    -0.001657  s :    -0.001657
      pz      :    -0.036294  p :    -0.036586
      px      :    -0.001667
      py      :     0.001375
      dz2     :     0.000979  d :     0.026624
      dxz     :     0.000892
      dyz     :     0.002212
      dx2y2   :     0.016652
      dxy     :     0.005890
  1 C s       :     0.033533  s :     0.033533
      pz      :     0.043569  p :     0.277272
      px      :     0.224869
      py      :     0.008834
      dz2     :     0.000488  d :    -0.005285
      dxz     :    -0.000141
      dyz     :    -0.001881
      dx2y2   :    -0.003509
      dxy     :    -0.000243
  2 H s       :     0.005028  s :     0.005028
      pz      :    -0.003047  p :    -0.004353
      px      :    -0.000314
      py      :    -0.000992
  3 C s       :     0.001627  s :     0.001627
      pz      :    -0.000042  p :     0.010143
      px      :     0.007238
      py      :     0.002946
      dz2     :     0.001742  d :     0.014561
      dxz     :     0.000594
      dyz     :     0.002393
      dx2y2   :     0.008354
      dxy     :     0.001479
  4 H s       :    -0.020508  s :    -0.020508
      pz      :     0.002649  p :     0.124423
      px      :     0.122528
      py      :    -0.000755
  5 C s       :     0.002374  s :     0.002374
      pz      :     0.000655  p :     0.011858
      px      :     0.011124
      py      :     0.000078
      dz2     :    -0.000004  d :     0.003006
      dxz     :     0.000090
      dyz     :     0.000160
      dx2y2   :     0.002534
      dxy     :     0.000226
  6 H s       :     0.001132  s :     0.001132
      pz      :    -0.000046  p :    -0.000311
      px      :     0.000016
      py      :    -0.000280
  7 H s       :     0.001531  s :     0.001531
      pz      :     0.000105  p :     0.000149
      px      :     0.000222
      py      :    -0.000178
  8 C s       :     0.003672  s :     0.003672
      pz      :     0.001929  p :     0.018986
      px      :     0.016153
      py      :     0.000904
      dz2     :    -0.000698  d :    -0.003245
      dxz     :    -0.003227
      dyz     :    -0.000062
      dx2y2   :     0.000840
      dxy     :    -0.000098
  9 H s       :    -0.000141  s :    -0.000141
      pz      :     0.000091  p :     0.000723
      px      :     0.000686
      py      :    -0.000054
 10 H s       :     0.000989  s :     0.000989
      pz      :     0.000052  p :     0.001530
      px      :     0.001395
      py      :     0.000083
 11 H s       :    -0.001738  s :    -0.001738
      pz      :     0.000141  p :     0.001430
      px      :     0.001306
      py      :    -0.000017
 12 H s       :    -0.001505  s :    -0.001505
      pz      :     0.000096  p :     0.001583
      px      :     0.001509
      py      :    -0.000022
 13 O s       :     0.019352  s :     0.019352
      pz      :     0.010004  p :     0.499335
      px      :     0.482539
      py      :     0.006792
      dz2     :     0.000065  d :     0.004489
      dxz     :     0.001354
      dyz     :    -0.000277
      dx2y2   :     0.002165
      dxy     :     0.001182
 14 H s       :    -0.010464  s :    -0.010464
      pz      :     0.000937  p :     0.020443
      px      :     0.022014
      py      :    -0.002507


                      *****************************
                      * MAYER POPULATION ANALYSIS *
                      *****************************

  NA   - Mulliken gross atomic population
  ZA   - Total nuclear charge
  QA   - Mulliken gross atomic charge
  VA   - Mayer's total valence
  BVA  - Mayer's bonded valence
  FA   - Mayer's free valence

  ATOM       NA         ZA         QA         VA         BVA        FA
  0 C      6.2203     6.0000    -0.2203     4.1076     3.7089     0.3987
  1 C      6.2045     6.0000    -0.2045     4.1348     3.5641     0.5707
  2 H      0.8319     1.0000     0.1681     0.9703     0.9045     0.0658
  3 C      6.1459     6.0000    -0.1459     4.1271     3.7796     0.3475
  4 H      0.8204     1.0000     0.1796     1.1177     1.0296     0.0881
  5 C      6.2837     6.0000    -0.2837     4.2670     3.9153     0.3516
  6 H      0.8522     1.0000     0.1478     0.9924     0.9250     0.0674
  7 H      0.8684     1.0000     0.1316     1.0045     0.9353     0.0691
  8 C      6.1932     6.0000    -0.1932     4.1865     3.8382     0.3483
  9 H      0.8683     1.0000     0.1317     1.0046     0.9365     0.0681
 10 H      0.8555     1.0000     0.1445     0.9884     0.9204     0.0680
 11 H      0.8601     1.0000     0.1399     0.9911     0.9227     0.0684
 12 H      0.8726     1.0000     0.1274     1.0051     0.9354     0.0697
 13 O      8.3402     8.0000    -0.3402     2.1498     1.4189     0.7309
 14 H      0.7828     1.0000     0.2172     1.0180     0.9464     0.0716

  Mayer bond orders larger than 0.100000
B(  0-C ,  1-C ) :   1.7864 B(  0-C ,  2-H ) :   0.8885 B(  0-C ,  8-C ) :   0.9756 
B(  1-C ,  3-C ) :   0.9988 B(  1-C ,  4-H ) :   0.5998 B(  3-C ,  5-C ) :   0.9707 
B(  3-C ,  6-H ) :   0.8981 B(  3-C ,  7-H ) :   0.8718 B(  4-H , 13-O ) :   0.3965 
B(  5-C ,  8-C ) :   1.0102 B(  5-C ,  9-H ) :   0.9161 B(  5-C , 10-H ) :   0.9084 
B(  8-C , 11-H ) :   0.9063 B(  8-C , 12-H ) :   0.8887 B( 13-O , 14-H ) :   0.9119 




--------------------------------------------------------------------------------
                                    TIMINGS
--------------------------------------------------------------------------------


Total execution time                   ...     1856.015 sec

Fock Matrix Formation                  ...        2.354 sec (  0.1%)
Initial Guess                          ...        0.539 sec (  0.0%)
DIIS Solver                            ...       23.147 sec (  1.2%)
State Vector Update                    ...        0.647 sec (  0.0%)
Sigma-vector construction              ...      917.346 sec ( 49.4%)
  <0|H|D>                              ...        0.201 sec (  0.0% of sigma)
  <D|H|D>(0-ext Fock)                  ...        1.502 sec (  0.2% of sigma)
  <D|H|D>(0-ext)                       ...       13.500 sec (  1.5% of sigma)
  <D|H|D>(2-ext Fock)                  ...        1.075 sec (  0.1% of sigma)
  <D|H|D>(2-ext)                       ...       80.017 sec (  8.7% of sigma)
  <D|H|D>(4-ext)                       ...      327.463 sec ( 35.7% of sigma)
  <S|H|0>                              ...      286.515 sec ( 31.2% of sigma)
  <S|H|S>                              ...        0.005 sec (  0.0% of sigma)
  <S|H|D>(1-ext)                       ...        0.308 sec (  0.0% of sigma)
  <D|H|S>(1-ext)                       ...        1.898 sec (  0.2% of sigma)
  Fock-dressing                        ...       26.367 sec (  2.9% of sigma)
  (ik|jl)-dressing                     ...       33.273 sec (  3.6% of sigma)
  (ij|ab),(ia|jb)-dressing             ...      135.177 sec ( 14.7% of sigma)
  Pair energies                        ...        0.259 sec (  0.0% of sigma)
Total Time for computing (T)           ...      712.736 sec ( 38.4% of ALL)
  I/O of integral and amplitudes       ...       54.859 sec (  7.7% of (T))
  External N**7 contributions          ...      453.622 sec ( 63.6% of (T))
  Internal N**7 contributions          ...       42.233 sec (  5.9% of (T))
  N**6 triples energy contributions    ...      161.386 sec ( 22.6% of (T))


Maximum memory used throughout the entire MDCI-calculation: 7236.5 MB

-------------------------   --------------------
FINAL SINGLE POINT ENERGY      -270.649731796427
-------------------------   --------------------



           ************************************************************
           *        Program running with 8 parallel MPI-processes     *
           *              working on a common directory               *
           ************************************************************

------------------------------------------------------------------------------
                              ORCA PROPERTY CALCULATIONS
------------------------------------------------------------------------------

GBWName                                 ... sp.gbw
Number of atoms                         ...     15
Number of basis functions               ...    297
Max core memory                         ...   9000 MB

Electric properties:
Dipole moment                           ... YES
Quadrupole moment                       ...  NO
Static polarizability (Dipole/Dipole)   ...  NO
Static polarizability (Dipole/Quad.)    ...  NO
Static polarizability (Quad./Quad.)     ...  NO
Static polarizability (Velocity)        ...  NO
Static hyperpolarizability              ...  NO

Atomic electric properties:
Dipole moment                           ...  NO
Quadrupole moment                       ...  NO
Static polarizability                   ...  NO

Choice of electric origin               ... Center of mass
Position of electric origin             ...    -0.085200    -0.012323    -0.020494

General magnetic properties:
Magnetizability                         ...  NO

EPR properties:
g-Tensor (aka g-matrix)                 ...  NO
Zero-Field splitting spin-orbit         ...  NO
Zero-field splitting spin-spin          ...  NO
Hyperfine couplings                     ...  NO (   0 nuclei)
Quadrupole couplings                    ...  NO (   0 nuclei)
Contact density                         ...  NO (   0 nuclei)

NMR properties:
Chemical shifts                         ...  NO (   0 nuclei)
Spin-rotation constants                 ...  NO (   0 nuclei)
Spin-spin couplings                     ...  NO (   0 nuclei,    0 pairs)

Choice of magnetic origin               ... GIAO
Position of magnetic origin             ...     0.000000     0.000000     0.000000

Properties with geometric perturbations:
SCF Hessian                             ...  NO
IR spectrum                             ...  NO
VCD spectrum                            ...  NO
X-ray spectroscopy properties:
SCF XES/XAS/RIXS spectra                ...  NO

SCF SOC stabilization energy            ...  NO
Diagonal Born-Oppenheimer correction    ...  NO

-------------
DIPOLE MOMENT
-------------

Method             : SCF
Type of density    : Electron Density
Multiplicity       :   2
Irrep              :   0
Energy             :  -269.4117298133453460 Eh
Basis              : AO
                                X                 Y                 Z
Electronic contribution:     -3.560607835      -0.817884115      -0.386219550
Nuclear contribution   :      4.026130478       0.631733636       0.968239056
                        -----------------------------------------
Total Dipole Moment    :      0.465522643      -0.186150479       0.582019506
                        -----------------------------------------
Magnitude (a.u.)       :      0.768186199
Magnitude (Debye)      :      1.952574145



--------------------
Rotational spectrum 
--------------------
 
Rotational constants in cm-1:             0.236629             0.066661             0.054142 
Rotational constants in MHz :          7093.950327          1998.441652          1623.139923 

Dipole components along the rotational axes: 
x,y,z [a.u.] :     0.471507     0.178659     0.579545 
x,y,z [Debye]:     1.198476     0.454115     1.473086 

 

-------------
DIPOLE MOMENT
-------------

Method             : MDCI(SD)
Type of density    : Electron Density
Multiplicity       :   2
Level              : Linearized density
Irrep              :   0
Energy             :     0.0000000000000000 Eh
Basis              : AO
                                X                 Y                 Z
Electronic contribution:     -3.188034010      -0.802376014      -0.443755182
Nuclear contribution   :      4.026130478       0.631733636       0.968239056
                        -----------------------------------------
Total Dipole Moment    :      0.838096467      -0.170642378       0.524483873
                        -----------------------------------------
Magnitude (a.u.)       :      1.003298482
Magnitude (Debye)      :      2.550182074



--------------------
Rotational spectrum 
--------------------
 
Rotational constants in cm-1:             0.236629             0.066661             0.054142 
Rotational constants in MHz :          7093.950327          1998.441652          1623.139923 

Dipole components along the rotational axes: 
x,y,z [a.u.] :     0.843486     0.160628     0.518977 
x,y,z [Debye]:     2.143972     0.408285     1.319135 

 

Dipole moment calculation done in   0.0 sec 

Maximum memory used throughout the entire PROP-calculation: 16.9 MB

--------------------------------
SUGGESTED CITATIONS FOR THIS RUN
--------------------------------

Below you find a list of papers that are relevant to this ORCA run
We neither can nor want to force you to cite these papers, but we appreciate if you do
You receive ORCA, which is the product of decades of hard work by many enthusiastic individuals, for free
The only thing we kindly ask in return is that you cite our papers,
We deeply appreciate it, if you show your appreciation for ORCA by not just citing the generic ORCA reference.

Please note that relegating all ORCA citations to the supporting information does *not* help us.
SI sections are not indexed - citations you put there will not count into any citation statistics
But we need these citations in order to attract the funding resources that allow us to do what we are doing

Therefore, if you are a happy ORCA user, please consider citing a few of the papers listed below in the main body of your paper

In addition to the list printed below, the program has created the file sp.bibtex that contains the list in bibtex format
You can import this file easily into all common literature databanks and citation aid programs

It goes without saying that in many instances, there are alternative algorithms to achieve similar
results as the ones you have gotten from ORCA. It is, of course, also the case that in some instances
ORCA just re-implements algorithms worked out by others. We are fully aware of that and we are also
fully appreciative of our colleagues work. Hence this citation list should not be read as indicating
that the listed papers, which are focused on our own work, are the only ones worth citing. It simply
meant to make it easier for users to cite ORCA specific papers. It is not a substitute for doing your
own literature research and citing the relevant literature in a scientifically appropriate manner.

List of essential papers. We consider these as the minimum necessary citations

  1. Neese, F.
     Software update: the ORCA program system, version 6.0
     WIRES Comput. Molec. Sci. 2025 15(1), e70019
     doi.org/10.1002/wcms.70019

List of papers to cite with high priority. The work reported in these papers was absolutely
necessary for this run to complete.
Our perspective: the developers of density functionals and basis sets usually get cited in chemistry papers
Good! But without the algorithms to do something with them, the functionals or basis sets would not do anything.
Hence, in our opinion, the algorithm design and method developments papers are equally worthy of getting cited

  1. Pavosevic, F.; Neese, F.; Valeev, E.F.
     Geminal-spanning orbitals make explicitly correlated reduced-scaling coupled-cluster methods robust, yet simple
     J. Chem. Phys. 2014 141 , 
     doi.org/10.1063/1.4890002
  2. Neese, F.
     The SHARK Integral Generation and Digestion System
     J. Comp. Chem. 2022 44(3), 381
     doi.org/10.1002/jcc.26942

List of suggested additional citations. These are papers that are important in the 'surrounding' of 
of this run, or papers that preceded the highly important papers. If you like your results we are grateful for a citation.

  1. Neese, F.
     The ORCA program system
     WIRES Comput. Molec. Sci. 2012 2(1), 73-78
     doi.org/10.1002/wcms.81
  2. Neese, F.
     Software update: the ORCA program system, version 4.0
     WIRES Comput. Molec. Sci. 2018 8(1), 1-6
     doi.org/10.1002/wcms.1327
  3. Neese, F.; Wennmohs, F.; Becker, U.; Riplinger, C.
     The ORCA quantum chemistry program package
     J. Chem. Phys. 2020 152(22), 224108
     doi.org/10.1063/5.0004608
  4. Neese, F.
     Software update: The ORCA program system—Version 5.0
     WIRES Comput. Molec. Sci. 2022 12(1), e1606
     doi.org/10.1002/wcms.1606

List of optional additional citations

  1. Neese, F.
     Approximate second-order SCF convergence for spin unrestricted wavefunctions
     Chem. Phys. Lett. 2000 325(1-3), 93-98
     doi.org/10.1016/s0009-2614(00)00662-x

Timings for individual modules:

Sum of individual times          ...     1901.179 sec (=  31.686 min)
Startup calculation              ...        3.245 sec (=   0.054 min)   0.2 %
SCF iterations                   ...       33.707 sec (=   0.562 min)   1.8 %
Property integrals               ...        1.806 sec (=   0.030 min)   0.1 %
Property calculations            ...        1.875 sec (=   0.031 min)   0.1 %
MDCI module                      ...     1860.547 sec (=  31.009 min)  97.9 %
                             ****ORCA TERMINATED NORMALLY****
TOTAL RUN TIME: 0 days 0 hours 31 minutes 42 seconds 911 msec
