
                                 *****************
                                 * O   R   C   A *
                                 *****************

                                            #,                                       
                                            ###                                      
                                            ####                                     
                                            #####                                    
                                            ######                                   
                                           ########,                                 
                                     ,,################,,,,,                         
                               ,,#################################,,                 
                          ,,##########################################,,             
                       ,#########################################, ''#####,          
                    ,#############################################,,   '####,        
                  ,##################################################,,,,####,       
                ,###########''''           ''''###############################       
              ,#####''   ,,,,##########,,,,          '''####'''          '####       
            ,##' ,,,,###########################,,,                        '##       
           ' ,,###''''                  '''############,,,                           
         ,,##''                                '''############,,,,        ,,,,,,###''
      ,#''                                            '''#######################'''  
     '                                                          ''''####''''         
             ,#######,   #######,   ,#######,      ##                                
            ,#'     '#,  ##    ##  ,#'     '#,    #''#        ,####,    ,#,          
            ##       ##  ##   ,#'  ##            #'  '#       #'       ,# #          
            ##       ##  #######   ##           ,######,      #####,      #          
            '#,     ,#'  ##    ##  '#,     ,#' ,#      #,     #,   #      #          
             '#######'   ##     ##  '#######'  #'      '#     '####' #    #          



                #########################################################
                #                        -***-                          #
                #          Department of theory and spectroscopy        #
                #                                                       #
                #                      Frank Neese                      #
                #                                                       #
                #     Directorship, Architecture, Infrastructure        #
                #                    SHARK, DRIVERS                     #
                #        Core code/Algorithms in most modules           #
                #                                                       #
                #        Max Planck Institute fuer Kohlenforschung      #
                #                Kaiser Wilhelm Platz 1                 #
                #                 D-45470 Muelheim/Ruhr                 #
                #                      Germany                          #
                #                                                       #
                #                  All rights reserved                  #
                #                        -***-                          #
                #########################################################


                         Program Version 6.1.1  -  RELEASE   -
                                (GIT: $487d211c$)
                          ($2025-11-21 10:33:24 +0100$)


 With contributions from (in alphabetic order):
[Max-Planck-Institut fuer Kohlenforschung]                               
  Daniel Aravena         : Magnetic Suceptibility                        
  Michael Atanasov       : Ab Initio Ligand Field Theory (pilot matlab implementation)
  Alexander A. Auer      : GIAO ZORA, VPT2 properties, NMR spectrum      
  Ute Becker             : All parallelization in ORCA, NUMFREQ, NUMCALC 
  Giovanni Bistoni       : ED, misc. LED, open-shell LED, HFLD           
  Dmytro Bykov           : pre 5.0 version of the SCF Hessian            
  Marcos Casanova-Páez   : Triplet and SCS-CIS(D). UHF-(DLPNO)-IP/EA/STEOM-CCSD. UHF-CVS-IP/STEOM-CCSD   
  Vijay G. Chilkuri      : MRCI spin determinant printing, contributions to CSF-ICE 
  Pauline Colinet        : FMM embedding                                 
  Dipayan Datta          : RHF DLPNO-CCSD density                        
  Achintya Kumar Dutta   : EOM-CC, STEOM-CC                              
  Nicolas Foglia         : Exact transition moments, OPA infrastructure, MCD improvements    
  Dmitry Ganyushin       : Spin-Orbit,Spin-Spin,Magnetic field MRCI      
  Miquel Garcia-Rates    : C-PCM and meta-GGA Hessian, CCSD/C-PCM, Gaussian charge scheme 
  Tiago L. C. Gouveia    : GS-ROHF, GS-ROCIS                             
  Yang Guo               : DLPNO-NEVPT2, F12-NEVPT2, CIM, IAO-localization        
  Andreas Hansen         : Spin unrestricted coupled pair/coupled cluster methods 
  Ingolf Harden          : AUTO-CI MPn and infrastructure                
  Benjamin Helmich-Paris : MC-RPA, TRAH-(SCF,CASSCF), AVAS, COSX integrals, SCF dyn. polar., MC-PDFT, srDFT 
  Lee Huntington         : MR-EOM, pCC                                   
  Robert Izsak           : Overlap fitted RIJCOSX, COSX-SCS-MP3, EOM     
  Riya Kayal             : Wick's Theorem for AUTO-CI, AUTO-CI UHF-CCSDT 
  Emily Kempfer          : AUTO-CI RHF CISDT and CCSDT, approximate NEVPT4
  Christian Kollmar      : KDIIS, OOCD, Brueckner-CCSD(T), CCSD density, CASPT2, CASPT2-K, improved NEVPT2 
  Axel Koslowski         : Symmetry handling                             
  Simone Kossmann        : meta-GGA functionals, TD-DFT gradient, OOMP2, (MP2 Hessian; deprecated post 5.0) 
  Lucas Lang             : DCDCAS, Hyperfine gauge corrections, ICE-SOC+SSC
  Marvin Lechner         : AUTO-CI (C++ implementation), FIC-MRCC        
  Spencer Leger          : CASSCF response                               
  Dagmar Lenk            : GEPOL surface, SMD, ORCA-2-JSON               
  Dimitrios Liakos       : Extrapolation schemes; Compound Job, Property file
  Dimitrios Manganas     : Further ROCIS development; embedding schemes. LFT, Crystal Embedding 
  Dimitrios Pantazis     : SARC Basis sets                               
  Anastasios Papadopoulos: AUTO-CI, single reference methods and gradients 
  Taras Petrenko         : pre 6.0 DFT Hessian and TD-DFT gradient,  ECA, NRVS 
  Petra Pikulova         : Analytic Raman intensities                    
  Peter Pinski           : DLPNO-MP2, DLPNO-MP2 Gradient                 
  Shashank Vittal Rao    : ES-AILFT, MagRelax                            
  Christoph Reimann      : Effective Core Potentials                     
  Marius Retegan         : Local ZFS, SOC                                
  Christoph Riplinger    : Optimizer, TS searches, QM/MM, DLPNO-CCSD(T), (RO)-DLPNO pert. Triples 
  Michael Roemelt        : Original ROCIS implementation, recursive CI coupling coefficients
  Masaaki Saitow         : Open-shell DLPNO-CCSD energy and density      
  Barbara Sandhoefer     : DKH picture change effects                    
  Yorick L. A. Schmerwitz: GMF and freeze-and-release deltaSCF, NEB S-IDPP initial path                    
  Kantharuban Sivalingam : CASSCF convergence/infrastructure, NEVPT2, NEVPT3, NEVPT4(SD), FIC-MRCI and CEPA variants
  Bernardo de Souza      : ESD, SOC TD-DFT                               
  Georgi L. Stoychev     : AutoAux, RI-MP2 NMR, DLPNO-MP2 response, X2C  
  Van Anh Tran           : RI-MP2 g-tensors                              
  Willem Van den Heuvel  : Paramagnetic NMR                              
  Zikuan Wang            : NOTCH, Electric field optimization            
  Frank Wennmohs         : Technical directorship and infrastructure     
  Hang Xu                : AUTO-CI-Response properties                   
                                                                         
[FACCTs GmbH]                                                            
  Markus Bursch, Nicolas Foglia, Miquel Garcia-Rates, Ingolf Harden, Hagen Neugebauer, Anastasios Papadopoulos, 
  Christoph Riplinger, Bernardo de Souza, Georgi L. Stoychev                                                    
                                                                 
  APM, various basis sets, CI-OPT, improved COSX, DLPNO-Multilevel,           
  DOCKER, DRACO, updates on ESD, Fragmentator, GOAT, IRC, LR-CPCM, L-BFGS, MBIS, meta-GGA TD-DFT gradient, ML-optimized integration grids, 
  MM, NACMEs, nearIR, NEB, NEB-TS, NL-DFT gradient (VV10), 2- and 3-layer-ONIOM, interface openCOSMO-RS, QMMM,   
  Crystal-QMMM, RESP, rigid body optimization, SF, symmetry and pop. for TD-DFT, various functionals, SOLVATOR                                   
                                                                         
[Other institutions]                                                     
  V. Asgeirsson          : NEB                                           
  Christoph Bannwarth    : sTDA-DFT, sTD-DFT, PBEh-3c, B97-3c, D3        
  Giovanni Bistoni       : ETS/NOCV, ADLD/ADEX, COVALED                  
  Martin Brehm           : Molecular dynamics                            
  Ronald Cardenas        : ETS/NOCV                                      
  Martina Colucci        : COVALED                                       
  Sebastian Ehlert       : rSCAN, r2SCAN, r2SCAN-3c, D4, dhf basis sets  
  Marvin Friede          : D4 for Fr, Ra, Ac-Lr                          
  Lars Goerigk           : TD-DFT with DH, B97 family of functionals     
  Stefan Grimme          : VdW corrections, initial TS optimization, DFT functionals, gCP, sTDA/sTD-DF 
  Waldemar Hujo          : DFT-NL                                        
  H. Jonsson             : NEB                                           
  Holger Kruse           : gCP                                           
  Marcel Mueller         : wB97X-3c, vDZP basis set                      
  Hagen Neugebauer       : wr2SCAN, Native XTB                           
  Gianluca Regni         : ADLD/ADEX                                     
  Tobias Risthaus        : pre 6.0 range-separated hybrid DFT and stability analysis
  Lukas Wittmann         : regularized MP2, r2SCAN double-hybrids, wr2SCAN        
                                                                         
We gratefully acknowledge several colleagues who have allowed us to      
interface, adapt or use parts of their codes:                            
  Ed Valeev, F. Pavosevic, A. Kumar             : LibInt (2-el integral package), F12 methods 
  Garnet Chan, S. Sharma, J. Yang, R. Olivares  : DMRG                   
  Ulf Ekstrom                                   : XCFun DFT Library      
  Mihaly Kallay                                 : mrcc  (arbitrary order and MRCC methods)
  Frank Weinhold                                : gennbo (NPA and NBO analysis)           
  Simon Mueller                                 : openCOSMO-RS                            
  Christopher J. Cramer and Donald G. Truhlar   : smd solvation model                     
  S Lehtola, MJT Oliveira, MAL Marques          : LibXC Library                           
  Liviu Ungur et al                             : ANISO software                          


 Your calculation uses the libint2 library for the computation of 2-el integrals
 For citations please refer to: http://libint.valeyev.net

 Your ORCA version has been built with support for libXC version: 7.0.0
 For citations please refer to: https://libxc.gitlab.io

 This ORCA versions uses:
   CBLAS   interface :  Fast vector & matrix operations
   LAPACKE interface :  Fast linear algebra routines
   SCALAPACK package :  Parallel linear algebra routines
   Shared memory     :  Shared parallel matrices
   BLAS/LAPACK       :  OpenBLAS 0.3.29  USE64BITINT DYNAMIC_ARCH NO_AFFINITY Zen SINGLE_THREADED
        Core in use  :  Zen
   Copyright (c) 2011-2014, The OpenBLAS Project


  ***********************************
  * Starting time: Tue Mar 10 13:14:43 2026
  * Host name:     c1-14
  * Process ID:    2799435
  * Working dir.:  /home/avcopan/proj/project-cyclopentane/code/oh-addition/calc/cyC5e1/RH+OH-c3
  ***********************************

NOTE: MaxCore=6000 MB was set to SCF,MP2,MDCI,CIPSI,MRCI,RASCI and CIS
      => If you want to overwrite this, your respective input block should be placed after the MaxCore statement


***************************************
The coordinates will be read from file: path_init_back.xyz
***************************************


Your calculation utilizes the atom-pairwise dispersion correction
based on EEQ partial charges (D4)


Warning: RI is on but no J-basis has been assigned. Assigning Def2/J (nothing to worry about!)
================================================================================

----- Orbital basis set information -----
Your calculation utilizes the basis: def2-TZVPP
   F. Weigend and R. Ahlrichs, Phys. Chem. Chem. Phys. 7, 3297 (2005).

----- AuxJ basis set information -----
Your calculation utilizes the auxiliary basis: def2/J
   H-Rn: F. Weigend, Phys. Chem. Chem. Phys. 8, 1057 (2006).
   Fr-Lr: K. Eichkorn, F. Weigend, O. Treutler, R. Ahlrichs; Theor. Chem. Acc. 97, 119 (1997).

----- AuxC basis set information -----
Your calculation utilizes the auxiliary basis: def2-TZVPP/C
  H-La, Hf-Rn : A. Hellweg, C. Hattig, S. Hofener and W. Klopper, Theor. Chem. Acc. 117, 587 (2007).
        Ce-Lu : J. Chmela and M. E. Harding, Mol. Phys. (2018).

================================================================================
                                        WARNINGS
                       Please study these warnings very carefully!
================================================================================


WARNING: your system is open-shell and RHF/RKS was chosen
  ===> : WILL SWITCH to UHF/UKS


WARNING: The frozen-core approximation for MP2-gradient calculations is turned on by default.

WARNING: The environment variable RSH_COMMAND is not set!
  ===> : All Displacements for the Numerical Hessian or Gradient calculation
         will be started on localhost

WARNING: Geometry Optimization
  ===> : Switching off AutoStart
         For restart on a previous wavefunction, please use MOREAD

WARNING: The frozen-core approximation is turned on by default for 
         the MP2 part of double-hybrid DFT.

================================================================================
                                       INPUT FILE
================================================================================
NAME = path_back.inp
|  1> % MaxCore 6000
|  2> ! PAL8
|  3> ! REVDSD-PBEP86-D4/2021 def2-TZVPP def2-TZVPP/c
|  4> ! VeryTightSCF DefGrid3
|  5> ! Opt
|  6> ! NumFreq
|  7> %geom
|  8>    MaxIter        500
|  9>    Convergence    Tight
| 10> end
| 11> * xyzfile 0 2 path_init_back.xyz
| 12> 
| 13>                          ****END OF INPUT****
================================================================================

                       *****************************
                       * Geometry Optimization Run *
                       *****************************

Geometry optimization settings:
Update method            Update   .... BFGS
Choice of coordinates    CoordSys .... (2022) Redundant Internals
Initial Hessian          InHess   .... Almloef's Model
Max. no of cycles        MaxIter  .... 500

Convergence Tolerances:
Energy Change            TolE     ....  1.0000e-06 Eh
Max. Gradient            TolMAXG  ....  1.0000e-04 Eh/bohr
RMS Gradient             TolRMSG  ....  3.0000e-05 Eh/bohr
Max. Displacement        TolMAXD  ....  1.0000e-03 bohr
RMS Displacement         TolRMSD  ....  6.0000e-04 bohr
Strict Convergence                .... False

------------------------------------------------------------------------------
                        ORCA OPTIMIZATION COORDINATE SETUP
------------------------------------------------------------------------------

The optimization will be done in redundant internal coordinates (2022)
Making redundant internal coordinates   ...  (2022 redundants) done
Evaluating the initial hessian          ...  (Almloef) done
Evaluating the coordinates              ...  done
Calculating the B-matrix                .... done
Calculating the G-matrix                .... done
The number of degrees of freedom        ....   78

    -----------------------------------------------------------------
                    Redundant Internal Coordinates


    -----------------------------------------------------------------
         Definition                    Initial Value    Approx d2E/dq
    -----------------------------------------------------------------
      1. B(C   1,C   0)                  1.3350         0.764817   
      2. B(H   2,C   0)                  1.0828         0.369793   
      3. B(C   3,C   1)                  1.5081         0.404835   
      4. B(H   4,C   1)                  1.0828         0.369691   
      5. B(C   5,C   3)                  1.5370         0.364067   
      6. B(H   6,C   3)                  1.0924         0.356882   
      7. B(H   7,C   3)                  1.0962         0.351994   
      8. B(C   8,C   5)                  1.5371         0.364009   
      9. B(C   8,C   0)                  1.5080         0.404966   
     10. B(H   9,C   5)                  1.0836         0.368602   
     11. B(H  10,C   5)                  1.0905         0.359430   
     12. B(H  11,C   8)                  1.0924         0.356874   
     13. B(H  12,C   8)                  1.0962         0.352033   
     14. B(O  13,H   9)                  1.5442         0.060805   
     15. B(H  14,O  13)                  0.9705         0.500238   
     16. B(H  14,H   9)                  1.8756         0.010000   
     17. A(H   2,C   0,C   8)          123.0038         0.330101   
     18. A(C   1,C   0,H   2)          124.8524         0.367419   
     19. A(C   1,C   0,C   8)          112.1145         0.417602   
     20. A(C   0,C   1,H   4)          124.8785         0.367402   
     21. A(C   3,C   1,H   4)          122.9843         0.330068   
     22. A(C   0,C   1,C   3)          112.1088         0.417578   
     23. A(C   1,C   3,H   6)          112.8826         0.328152   
     24. A(C   5,C   3,H   6)          111.9117         0.322475   
     25. A(C   1,C   3,C   5)          102.5504         0.366762   
     26. A(H   6,C   3,H   7)          107.0407         0.289394   
     27. A(C   5,C   3,H   7)          111.8406         0.321747   
     28. A(C   1,C   3,H   7)          110.6972         0.327406   
     29. A(C   3,C   5,H   9)          106.1744         0.324189   
     30. A(C   3,C   5,C   8)          106.9472         0.360159   
     31. A(C   8,C   5,H  10)          114.4341         0.322843   
     32. A(C   3,C   5,H  10)          114.4453         0.322851   
     33. A(C   8,C   5,H   9)          105.9545         0.324180   
     34. A(H   9,C   5,H  10)          108.2573         0.291823   
     35. A(C   0,C   8,C   5)          102.5508         0.366772   
     36. A(H  11,C   8,H  12)          107.0401         0.289398   
     37. A(C   5,C   8,H  12)          111.8206         0.321745   
     38. A(C   0,C   8,H  12)          110.7177         0.327430   
     39. A(C   5,C   8,H  11)          111.9264         0.322465   
     40. A(C   0,C   8,H  11)          112.8674         0.328168   
     41. A(O  13,H   9,H  14)           31.0902         0.127173   
     42. A(C   5,H   9,H  14)          143.1268         0.147075   
     43. A(C   5,H   9,O  13)          174.1960         0.223081   
     44. A(H   9,O  13,H  14)           93.6632         0.231002   
     45. A(H   9,H  14,O  13)           55.2466         0.150506   
     46. D(H   4,C   1,C   0,H   2)     -0.0370         0.041876   
     47. D(H   4,C   1,C   0,C   8)   -178.1136         0.041876   
     48. D(C   3,C   1,C   0,H   2)    178.0677         0.041876   
     49. D(C   3,C   1,C   0,C   8)     -0.0089         0.041876   
     50. D(C   5,C   3,C   1,H   4)   -170.1006         0.012150   
     51. D(H   6,C   3,C   1,C   0)    132.3454         0.012150   
     52. D(H   7,C   3,C   1,C   0)   -107.6885         0.012150   
     53. D(H   6,C   3,C   1,H   4)    -49.5082         0.012150   
     54. D(C   5,C   3,C   1,C   0)     11.7530         0.012150   
     55. D(H   9,C   5,C   3,H   6)    -26.9325         0.010618   
     56. D(C   8,C   5,C   3,H   7)    100.1638         0.010618   
     57. D(C   8,C   5,C   3,H   6)   -139.7364         0.010618   
     58. D(C   8,C   5,C   3,C   1)    -18.4762         0.010618   
     59. D(H   9,C   5,C   3,H   7)   -147.0323         0.010618   
     60. D(H   9,C   5,C   3,C   1)     94.3277         0.010618   
     61. D(H  11,C   8,C   5,H  10)    -92.4271         0.010614   
     62. D(H  11,C   8,C   5,H   9)     26.7676         0.010614   
     63. D(H  11,C   8,C   5,C   3)    139.7215         0.010614   
     64. D(C   0,C   8,C   5,H   9)    -94.4822         0.010614   
     65. D(C   0,C   8,C   5,C   3)     18.4717         0.010614   
     66. D(H  12,C   8,C   0,C   1)    107.6891         0.012158   
     67. D(C   0,C   8,C   5,H  10)    146.3231         0.010614   
     68. D(H  11,C   8,C   0,H   2)     49.5406         0.012158   
     69. D(H  11,C   8,C   0,C   1)   -132.3414         0.012158   
     70. D(C   5,C   8,C   0,H   2)    170.1431         0.012158   
     71. D(C   5,C   8,C   0,C   1)    -11.7390         0.012158   
     72. D(H  14,H   9,C   5,C   3)    122.2155         0.140253   
     73. D(O  13,H   9,C   5,H  10)     -5.6291         0.140253   
     74. D(O  13,H   9,C   5,C   8)   -128.8136         0.140253   
     75. D(H  14,H   9,C   5,C   8)   -124.2950         0.140253   
     76. D(O  13,H   9,C   5,C   3)    117.6969         0.140253   
     77. D(H  14,O  13,H   9,C   5)      5.2525         0.010000   
     78. D(O  13,H  14,H   9,C   5)   -179.1160         0.010000   
    -----------------------------------------------------------------

Number of atoms                         .... 15
Number of degrees of freedom            .... 78


         *************************************************************
         *                GEOMETRY OPTIMIZATION CYCLE   1            *
         *************************************************************
---------------------------------
CARTESIAN COORDINATES (ANGSTROEM)
---------------------------------
  C     -1.439863   -0.667807   -0.550142
  C     -1.438271    0.667148   -0.551013
  H     -2.100582   -1.286172   -1.144671
  C     -0.431916    1.234188    0.418603
  H     -2.096966    1.286758   -1.146628
  C      0.399382   -0.001689    0.798042
  H      0.185052    2.021151   -0.021253
  H     -0.935679    1.669837    1.289282
  C     -0.434810   -1.236086    0.419962
  H      1.255194   -0.005538    0.133314
  H      0.764833   -0.001664    1.825491
  H      0.180062   -2.025032   -0.019291
  H     -0.939144   -1.669517    1.291379
  O      2.563843    0.004144   -0.686347
  H      3.130476    0.009654    0.101570

----------------------------
CARTESIAN COORDINATES (A.U.)
----------------------------
  NO LB      ZA    FRAG     MASS         X           Y           Z
   0 C     6.0000    0    12.011   -2.720947   -1.261972   -1.039618
   1 C     6.0000    0    12.011   -2.717938    1.260727   -1.041264
   2 H     1.0000    0     1.008   -3.969525   -2.430513   -2.163115
   3 C     6.0000    0    12.011   -0.816203    2.332277    0.791045
   4 H     1.0000    0     1.008   -3.962691    2.431620   -2.166813
   5 C     6.0000    0    12.011    0.754723   -0.003192    1.508081
   6 H     1.0000    0     1.008    0.349698    3.819422   -0.040162
   7 H     1.0000    0     1.008   -1.768177    3.155535    2.436390
   8 C     6.0000    0    12.011   -0.821672   -2.335864    0.793613
   9 H     1.0000    0     1.008    2.371973   -0.010465    0.251927
  10 H     1.0000    0     1.008    1.445325   -0.003145    3.449678
  11 H     1.0000    0     1.008    0.340268   -3.826756   -0.036455
  12 H     1.0000    0     1.008   -1.774725   -3.154930    2.440353
  13 O     8.0000    0    15.999    4.844961    0.007831   -1.297008
  14 H     1.0000    0     1.008    5.915742    0.018243    0.191939

--------------------------------
INTERNAL COORDINATES (ANGSTROEM)
--------------------------------
 C      0   0   0     0.000000000000     0.00000000     0.00000000
 C      1   0   0     1.334956233414     0.00000000     0.00000000
 H      1   2   0     1.082769413138   124.85242485     0.00000000
 C      2   1   3     1.508124641759   112.10877060   178.06770698
 H      2   1   3     1.082844810372   124.87854017   359.96301819
 C      4   2   1     1.537017331930   102.55037045    11.75302452
 H      4   2   1     1.092443855367   112.88259974   132.34537643
 H      4   2   1     1.096197579094   110.69721245   252.31150619
 C      1   2   3     1.508036579618   112.11447189   181.92335417
 H      6   4   2     1.083647686349   106.17437051    94.32773448
 H      6   4   2     1.090507167160   114.44527410   213.67898013
 H      9   1   2     1.092449799903   112.86736152   227.65856127
 H      9   1   2     1.096167324456   110.71768162   107.68911876
 O     10   6   4     1.544182664469   174.19602468   117.69688255
 H     14  10   6     0.970523835708    93.66321599     5.25253464

---------------------------
INTERNAL COORDINATES (A.U.)
---------------------------
 C      0   0   0     0.000000000000     0.00000000     0.00000000
 C      1   0   0     2.522701681923     0.00000000     0.00000000
 H      1   2   0     2.046137657017   124.85242485     0.00000000
 C      2   1   3     2.849942548743   112.10877060   178.06770698
 H      2   1   3     2.046280137141   124.87854017   359.96301819
 C      4   2   1     2.904541820439   102.55037045    11.75302452
 H      4   2   1     2.064419703329   112.88259974   132.34537643
 H      4   2   1     2.071513213155   110.69721245   252.31150619
 C      1   2   3     2.849776135413   112.11447189   181.92335417
 H      6   4   2     2.047797352857   106.17437051    94.32773448
 H      6   4   2     2.060759893010   114.44527410   213.67898013
 H      9   1   2     2.064430936875   112.86736152   227.65856127
 H      9   1   2     2.071456040176   110.71768162   107.68911876
 O     10   6   4     2.918082336595   174.19602468   117.69688255
 H     14  10   6     1.834024255932    93.66321599     5.25253464

---------------------
BASIS SET INFORMATION
---------------------
There are 3 groups of distinct atoms

 Group   1 Type C   : 11s6p2d1f contracted to 5s3p2d1f pattern {62111/411/11/1}
 Group   2 Type H   : 5s2p1d contracted to 3s2p1d pattern {311/11/1}
 Group   3 Type O   : 11s6p2d1f contracted to 5s3p2d1f pattern {62111/411/11/1}

Atom   0C    basis set group =>   1
Atom   1C    basis set group =>   1
Atom   2H    basis set group =>   2
Atom   3C    basis set group =>   1
Atom   4H    basis set group =>   2
Atom   5C    basis set group =>   1
Atom   6H    basis set group =>   2
Atom   7H    basis set group =>   2
Atom   8C    basis set group =>   1
Atom   9H    basis set group =>   2
Atom  10H    basis set group =>   2
Atom  11H    basis set group =>   2
Atom  12H    basis set group =>   2
Atom  13O    basis set group =>   3
Atom  14H    basis set group =>   2
---------------------------------
AUXILIARY/J BASIS SET INFORMATION
---------------------------------
There are 3 groups of distinct atoms

 Group   1 Type C   : 12s5p4d2f1g contracted to 6s4p3d1f1g pattern {711111/2111/211/2/1}
 Group   2 Type H   : 5s2p1d contracted to 3s1p1d pattern {311/2/1}
 Group   3 Type O   : 12s5p4d2f1g contracted to 6s4p3d1f1g pattern {711111/2111/211/2/1}

Atom   0C    basis set group =>   1
Atom   1C    basis set group =>   1
Atom   2H    basis set group =>   2
Atom   3C    basis set group =>   1
Atom   4H    basis set group =>   2
Atom   5C    basis set group =>   1
Atom   6H    basis set group =>   2
Atom   7H    basis set group =>   2
Atom   8C    basis set group =>   1
Atom   9H    basis set group =>   2
Atom  10H    basis set group =>   2
Atom  11H    basis set group =>   2
Atom  12H    basis set group =>   2
Atom  13O    basis set group =>   3
Atom  14H    basis set group =>   2
---------------------------------
AUXILIARY/C BASIS SET INFORMATION
---------------------------------
There are 3 groups of distinct atoms

 Group   1 Type C   : 8s6p5d3f1g contracted to 8s6p4d3f1g pattern {11111111/111111/2111/111/1}
 Group   2 Type H   : 4s3p2d1f contracted to 4s3p2d1f pattern {1111/111/11/1}
 Group   3 Type O   : 8s6p5d3f1g contracted to 8s6p4d3f1g pattern {11111111/111111/2111/111/1}

Atom   0C    basis set group =>   1
Atom   1C    basis set group =>   1
Atom   2H    basis set group =>   2
Atom   3C    basis set group =>   1
Atom   4H    basis set group =>   2
Atom   5C    basis set group =>   1
Atom   6H    basis set group =>   2
Atom   7H    basis set group =>   2
Atom   8C    basis set group =>   1
Atom   9H    basis set group =>   2
Atom  10H    basis set group =>   2
Atom  11H    basis set group =>   2
Atom  12H    basis set group =>   2
Atom  13O    basis set group =>   3
Atom  14H    basis set group =>   2


           ************************************************************
           *        Program running with 8 parallel MPI-processes     *
           *              working on a common directory               *
           ************************************************************
------------------------------------------------------------------------------
                             ORCA STARTUP CALCULATIONS
                           -- RI-GTO INTEGRALS CHOSEN --
------------------------------------------------------------------------------
------------------------------------------------------------------------------
                   ___                                                        
                  /   \      - P O W E R E D   B Y -                         
                 /     \                                                     
                 |  |  |   _    _      __       _____    __    __             
                 |  |  |  | |  | |    /  \     |  _  \  |  |  /  |          
                  \  \/   | |  | |   /    \    | | | |  |  | /  /          
                 / \  \   | |__| |  /  /\  \   | |_| |  |  |/  /          
                |  |  |   |  __  | /  /__\  \  |    /   |      \           
                |  |  |   | |  | | |   __   |  |    \   |  |\   \          
                \     /   | |  | | |  |  |  |  | |\  \  |  | \   \       
                 \___/    |_|  |_| |__|  |__|  |_| \__\ |__|  \__/        
                                                                              
                      - O R C A' S   B I G   F R I E N D -                    
                                      &                                       
                       - I N T E G R A L  F E E D E R -                       
                                                                              
 v1 FN, 2020, v2 2021, v3 2022-2024                                           
------------------------------------------------------------------------------


----------------------
SHARK INTEGRAL PACKAGE
----------------------

Number of atoms                             ...     15
Number of basis functions                   ...    312
Number of shells                            ...    120
Maximum angular momentum                    ...      3
Integral batch strategy                     ... SHARK/LIBINT Hybrid
RI-J (if used) integral strategy            ... SPLIT-RIJ (Revised 2003 algorithm where possible)
Printlevel                                  ...      1
Contraction scheme used                     ... SEGMENTED contraction
Prescreening option                         ... SCHWARTZ
   Thresh                                   ... 1.000e-12
   Tcut                                     ... 1.000e-14
   Tpresel                                  ... 1.000e-14 
Coulomb Range Separation                    ... NOT USED
Exchange Range Separation                   ... NOT USED
Multipole approximations                    ... NOT USED
Finite Nucleus Model                        ... NOT USED
CABS basis                                  ... NOT available
Auxiliary Coulomb fitting basis             ... AVAILABLE
   # of basis functions in Aux-J            ...    393
   # of shells in Aux-J                     ...    135
   Maximum angular momentum in Aux-J        ...      4
Auxiliary J/K fitting basis                 ... NOT available
Auxiliary Correlation fitting basis         ... AVAILABLE
   # of basis functions in Aux-C            ...    726
   # of shells in Aux-C                     ...    222
   Maximum angular momentum in Aux-C        ...      4
Auxiliary 'external' fitting basis          ... NOT available

Checking pre-screening integrals            ... done (  0.0 sec) Dimension = 120
   => SHARK Basis and OBASIS are compatible. Storing Pre-screening
Shell pair information
Shell pair cut-off parameter TPreSel        ...   1.0e-14
Total number of shell pairs                 ...      7260
Shell pairs after pre-screening             ...      6901
Total number of primitive shell pairs       ...     18687
Primitive shell pairs kept                  ...     14409
          la=0 lb=0:   1540 shell pairs
          la=1 lb=0:   1954 shell pairs
          la=1 lb=1:    645 shell pairs
          la=2 lb=0:   1128 shell pairs
          la=2 lb=1:    734 shell pairs
          la=2 lb=2:    219 shell pairs
          la=3 lb=0:    326 shell pairs
          la=3 lb=1:    212 shell pairs
          la=3 lb=2:    122 shell pairs
          la=3 lb=3:     21 shell pairs

Checking whether 4 symmetric matrices of dimension 312 fit in memory
:Max Core in MB      =   6000.00
 MB in use           =     11.93
 MB left             =   5988.07
 MB needed           =      1.49
 Data fit in memory  = YES
Calculating RI/J V-Matrix + Cholesky decomp.... done (  0.1 sec)
Calculating RI/C V-Matrix + Cholesky decomp.... done (  0.2 sec)
Calculating Nuclear repulsion               ... done (  0.0 sec) ENN=    228.994226106607 Eh

Diagonalization of the overlap matrix:
Smallest eigenvalue                        ... 8.468e-05
Time for diagonalization                   ...    0.017 sec
Threshold for overlap eigenvalues          ... 1.000e-07
Number of eigenvalues below threshold      ... 0
Time for construction of square roots      ...    0.080 sec
Total time needed                          ...    0.110 sec

-------------------
DFT GRID GENERATION
-------------------

General Integration Accuracy     IntAcc      ... 4.959
Radial Grid Type                 RadialGrid  ... OptM3 with GC (2021)
Angular Grid (max. ang.)         AngularGrid ... 6 (Lebedev-590)
Angular grid pruning method      GridPruning ... 4 (adaptive)
Weight generation scheme         WeightScheme... mBecke (2022)
Basis function cutoff            BFCut       ... 1.0000e-12
Integration weight cutoff        WCut        ... 1.0000e-14
Partially contracted basis set               ... off
Rotationally invariant grid construction     ... off
Angular grids for H and He will be reduced by one unit

Total number of grid points                  ...   164470
Total number of batches                      ...     2577
Average number of points per batch           ...       63
Average number of grid points per atom       ...    10965

--------------------
COSX GRID GENERATION
--------------------

GRIDX 1
-------
General Integration Accuracy     IntAcc      ... 4.020
Radial Grid Type                 RadialGrid  ... OptM3 with GC (2021)
Angular Grid (max. ang.)         AngularGrid ... 2 (Lebedev-110)
Angular grid pruning method      GridPruning ... 4 (adaptive)
Weight generation scheme         WeightScheme... mBecke (2022)
Basis function cutoff            BFCut       ... 1.0000e-12
Integration weight cutoff        WCut        ... 1.0000e-14
Partially contracted basis set               ... on
Rotationally invariant grid construction     ... off
Angular grids for H and He will be reduced by one unit

Total number of grid points                  ...    17697
Total number of batches                      ...      147
Average number of points per batch           ...      120
Average number of grid points per atom       ...     1180
UseSFitting                                  ... on

GRIDX 2
-------
General Integration Accuracy     IntAcc      ... 4.338
Radial Grid Type                 RadialGrid  ... OptM3 with GC (2021)
Angular Grid (max. ang.)         AngularGrid ... 3 (Lebedev-194)
Angular grid pruning method      GridPruning ... 4 (adaptive)
Weight generation scheme         WeightScheme... mBecke (2022)
Basis function cutoff            BFCut       ... 1.0000e-12
Integration weight cutoff        WCut        ... 1.0000e-14
Partially contracted basis set               ... on
Rotationally invariant grid construction     ... off
Angular grids for H and He will be reduced by one unit

Total number of grid points                  ...    38744
Total number of batches                      ...      312
Average number of points per batch           ...      124
Average number of grid points per atom       ...     2583
UseSFitting                                  ... on

GRIDX 3
-------
General Integration Accuracy     IntAcc      ... 4.871
Radial Grid Type                 RadialGrid  ... OptM3 with GC (2021)
Angular Grid (max. ang.)         AngularGrid ... 4 (Lebedev-302)
Angular grid pruning method      GridPruning ... 4 (adaptive)
Weight generation scheme         WeightScheme... mBecke (2022)
Basis function cutoff            BFCut       ... 1.0000e-12
Integration weight cutoff        WCut        ... 1.0000e-14
Partially contracted basis set               ... on
Rotationally invariant grid construction     ... off
Angular grids for H and He will be reduced by one unit

Total number of grid points                  ...    76025
Total number of batches                      ...      602
Average number of points per batch           ...      126
Average number of grid points per atom       ...     5068
UseSFitting                                  ... on
Grids setup in   4.6 sec
Initializing property integral containers    ... done (  0.0 sec)

SHARK setup successfully completed in   5.8 seconds

Maximum memory used throughout the entire STARTUP-calculation: 41.8 MB


           ************************************************************
           *        Program running with 8 parallel MPI-processes     *
           *              working on a common directory               *
           ************************************************************
-------------------------------------------------------------------------------
                                 ORCA GUESS
                   Start orbitals & Density for SCF / CASSCF
-------------------------------------------------------------------------------

------------
SCF SETTINGS
------------
Hamiltonian:
 Density Functional     Method          .... DFT(GTOs)
 Exchange Functional    Exchange        .... PBE
   PBE kappa parameter   XKappa         ....  0.804000
   PBE mue parameter    XMuePBE         ....  0.219520
 Correlation Functional Correlation     .... P86
 LDA part of GGA corr.  LDAOpt          .... VWN-5
 Gradients option       PostSCFGGA      .... off
 Hybrid DFT is turned on
   Fraction HF Exchange ScalHFX         ....  0.690000
   Scaling of DF-GGA-X  ScalDFX         ....  0.310000
   Scaling of DF-GGA-C  ScalDFC         ....  0.422400
   Scaling of DF-LDA-C  ScalLDAC        ....  0.422400
   Perturbative correction              ....  1.000000
 RI-approximation to the Coulomb term is turned on
   Number of AuxJ basis functions       .... 393
   RIJ-COSX (HFX calculated with COS-X)).... on


General Settings:
 Integral files         IntName         .... path_back
 Hartree-Fock type      HFTyp           .... UHF
 Total Charge           Charge          ....    0
 Multiplicity           Mult            ....    2
 Number of Electrons    NEL             ....   47
 Basis Dimension        Dim             ....  312
 Nuclear Repulsion      ENuc            ....    228.9942261066 Eh

Convergence Acceleration:
 AO-DIIS                CNVDIIS         .... on
   Start iteration      DIISMaxIt       ....    12
   Startup error        DIISStart       ....  0.200000
   # of expansion vecs  DIISMaxEq       ....     5
   Bias factor          DIISBfac        ....   1.050
   Max. coefficient     DIISMaxC        ....  10.000
 MO-DIIS                CNVKDIIS        .... off
 Trust-Rad. Augm. Hess. CNVTRAH         .... auto
   Auto Start mean grad. ratio tolernc. ....  1.125000
   Auto Start start iteration           ....    50
   Auto Start num. interpolation iter.  ....    10
   Max. Number of Micro iterations      ....    24
   Max. Number of Macro iterations      .... Maxiter - #DIIS iter
   Number of Davidson start vectors     ....     2
   Converg. threshold    (grad. norm)   ....   2.000e-06
   Grad. Scal. Fac. for Micro threshold ....   0.100
   Minimum threshold for Micro iter.    ....   1.000e-02
   NR start threshold (gradient norm)   ....   1.000e-04
   Initial trust radius                 ....   0.400
   Minimum AH scaling param. (alpha)    ....   1.000
   Maximum AH scaling param. (alpha)    .... 1000.000
   Quad. conv. algorithm                .... NR
   White noise on init. David. guess    .... on
   Maximum white noise                  ....   0.010
   Pseudo random numbers                .... off
   Inactive MOs                         .... canonical
   Orbital update algorithm             .... Taylor
   Preconditioner                       .... Diag
   Full preconditioner red. dimension   ....   250
 SOSCF                 CNVSOSCF           .... on
   Start iteration     SOSCFMaxIt         ....   150
   Startup grad/error  SOSCFStart         ....  0.003300
   Hessian update      SOSCFHessUp        .... L-BFGS
   Autom. constraints  SOSCFAutoConstrain .... off
 Level Shifting         CNVShift        .... on
   Level shift para.    LevelShift      ....    0.2500
   Turn off err/grad.   ShiftErr        ....    0.0010
 Zerner damping         CNVZerner       .... off
 Static damping         CNVDamp         .... on
   Fraction old density DampFac         ....    0.7000
   Max. Damping (<1)    DampMax         ....    0.9800
   Min. Damping (>=0)   DampMin         ....    0.0000
   Turn off err/grad.   DampErr         ....    0.1000

SCF Procedure:
 Maximum # iterations   MaxIter         ....   125
 SCF integral mode      SCFMode         .... Direct
   Integral package                     .... SHARK and LIBINT hybrid scheme
 Reset frequency        DirectResetFreq ....    20
 Integral Threshold     Thresh          ....  1.000e-12 Eh
 Primitive CutOff       TCut            ....  1.000e-14 Eh

Convergence Tolerance:
 Convergence Check Mode ConvCheckMode   .... Total+1el-Energy
 Convergence forced     ConvForced      .... 0
 Energy Change          TolE            ....  1.000e-09 Eh
 1-El. energy change                    ....  1.000e-06 Eh
 Orbital Gradient       TolG            ....  2.000e-06
 Orbital Rotation angle TolX            ....  2.000e-06
 DIIS Error             TolErr          ....  1.000e-08

------------------------------
INITIAL GUESS: MODEL POTENTIAL
------------------------------
Loading Hartree-Fock densities                     ... done
Calculating cut-offs                               ... done
Initializing the effective Hamiltonian             ... done
Setting up the integral package (SHARK)            ... done
Starting the Coulomb interaction                   ... done (   0.2 sec)
Making the grid                                    ... done (   0.3 sec)
Mapping shells                                     ... done
Starting the XC term evaluation                    ... done (   0.1 sec)
  promolecular density results
     # of electrons  =     46.998620992
     EX              =    -36.323592499
     EC              =      0.021460531
     EX+EC           =    -36.302131969
Transforming the Hamiltonian                       ... done (   0.0 sec)
Diagonalizing the Hamiltonian                      ... done (   0.0 sec)
Back transforming the eigenvectors                 ... done (   0.1 sec)
Now organizing SCF variables                       ... done
                      ------------------
                      INITIAL GUESS DONE (   0.9 sec)
                      ------------------
             **** ENERGY FILE WAS UPDATED (path_back.en.tmp) ****
Finished Guess after   3.3 sec
Maximum memory used throughout the entire GUESS-calculation: 17.9 MB


           ************************************************************
           *        Program running with 8 parallel MPI-processes     *
           *              working on a common directory               *
           ************************************************************

-------------------------------------------------------------------------------------------
                                      ORCA LEAN-SCF
                              memory conserving SCF solver
-------------------------------------------------------------------------------------------

----------------------------------------D-I-I-S--------------------------------------------
Iteration    Energy (Eh)           Delta-E    RMSDP     MaxDP     DIISErr   Damp  Time(sec)
-------------------------------------------------------------------------------------------
               ***  Starting incremental Fock matrix formation  ***
    1    -269.7773165868809429     0.00e+00  2.72e-03  7.19e-02  1.72e-01  0.700   6.0
    2    -269.8839824681725190    -1.07e-01  2.01e-03  5.18e-02  8.10e-02  0.700   4.5
                               ***Turning on AO-DIIS***
    3    -269.9389824956182338    -5.50e-02  6.80e-04  1.31e-02  3.60e-02  0.700   4.5
    4    -269.9752866656597803    -3.63e-02  2.39e-03  6.70e-02  2.62e-02  0.000   4.1
    5    -270.0756359113839835    -1.00e-01  1.25e-03  3.48e-02  1.69e-02  0.000   3.8
    6    -270.0860438863807076    -1.04e-02  1.10e-03  2.51e-02  1.09e-02  0.000   4.1
    7    -270.0928106579719952    -6.77e-03  4.51e-04  7.56e-03  6.43e-03  0.000   4.0
    8    -270.0949500823533640    -2.14e-03  3.66e-04  5.40e-03  4.09e-03  0.000   3.9
                              *** Initializing SOSCF ***
---------------------------------------S-O-S-C-F--------------------------------------
Iteration    Energy (Eh)           Delta-E    RMSDP     MaxDP     MaxGrad    Time(sec)
--------------------------------------------------------------------------------------
    9    -270.0958784000820287    -9.28e-04  1.98e-04  3.09e-03  2.33e-03     4.6
               *** Restarting incremental Fock matrix formation ***
   10    -270.0962106427954836    -3.32e-04  1.35e-04  2.32e-03  4.09e-03     6.4
   11    -270.0963051427716550    -9.45e-05  1.22e-04  1.74e-03  1.41e-03     5.2
   12    -270.0963294709263778    -2.43e-05  2.42e-05  3.77e-04  6.24e-04     6.1
   13    -270.0963344341251400    -4.96e-06  1.24e-05  2.06e-04  3.11e-04     5.3
   14    -270.0963356488902036    -1.21e-06  9.27e-06  1.45e-04  1.60e-04     6.0
   15    -270.0963360414124850    -3.93e-07  2.64e-06  4.43e-05  5.82e-05     5.8
   16    -270.0963360873165584    -4.59e-08  1.22e-06  2.09e-05  2.55e-05     5.6
   17    -270.0963361075492912    -2.02e-08  1.14e-06  2.11e-05  1.33e-05     5.1
   18    -270.0963361146752391    -7.13e-09  4.28e-07  1.03e-05  1.17e-05     4.8
   19    -270.0963361164270395    -1.75e-09  1.31e-06  3.60e-05  1.08e-05     4.9
   20    -270.0963361207471394    -4.32e-09  1.31e-06  3.97e-05  7.72e-06     4.9
   21    -270.0963361242367000    -3.49e-09  1.21e-06  3.65e-05  6.60e-06     5.1
   22    -270.0963361266270795    -2.39e-09  6.17e-07  1.49e-05  3.42e-06     4.3
   23    -270.0963361274511385    -8.24e-10  2.46e-07  5.00e-06  1.35e-06     4.5
                 **** Energy Check signals convergence ****

               *****************************************************
               *                     SUCCESS                       *
               *           SCF CONVERGED AFTER  23 CYCLES          *
               *****************************************************

Recomputing exchange energy using gridx3       ... done (    6.072 sec)
Old exchange energy                            :    -25.795772809 Eh
New exchange energy                            :    -25.795783642 Eh
Exchange energy change after final integration :     -0.000010833 Eh
Total energy after final integration           :   -270.096346960 Eh
             **** ENERGY FILE WAS UPDATED (path_back.en.tmp) ****

----------------
TOTAL SCF ENERGY
----------------

Total Energy       :       -270.09634696026961 Eh           -7349.69525 eV

Components:
Nuclear Repulsion  :        228.99422610660667 Eh            6231.24968 eV
Electronic Energy  :       -499.09056223420907 Eh          -13580.94464 eV
One Electron Energy:       -819.67767169970671 Eh          -22304.56339 eV
Two Electron Energy:        320.58710946549763 Eh            8723.61875 eV

Virial components:
Potential Energy   :       -539.60195531025124 Eh          -14683.31569 eV
Kinetic Energy     :        269.50560834998157 Eh            7333.62044 eV
Virial Ratio       :          2.00219193438647

DFT components:
N(Alpha)           :       24.000004735073 electrons
N(Beta)            :       23.000004279458 electrons
N(Total)           :       47.000009014531 electrons
E(X)               :      -11.529367824959 Eh       
E(C)               :       -0.710460585625 Eh       
E(XC)              :      -12.239828410585 Eh       

---------------
SCF CONVERGENCE
---------------

  Last Energy change         ...    8.2406e-10  Tolerance :   1.0000e-09
  Last MAX-Density change    ...    4.9981e-06  Tolerance :   1.0000e-08
  Last RMS-Density change    ...    2.4576e-07  Tolerance :   1.0000e-09
  Last DIIS Error            ...    2.3274e-03  Tolerance :   1.0000e-08
  Last Orbital Gradient      ...    1.3526e-06  Tolerance :   2.0000e-06
  Last Orbital Rotation      ...    6.5635e-06  Tolerance :   2.0000e-06


----------------------
UHF SPIN CONTAMINATION
----------------------

Warning: in a DFT calculation there is little theoretical justification to 
         calculate <S**2> as in Hartree-Fock theory. We will do it anyways
         but you should keep in mind that the values have only limited relevance

Expectation value of <S**2>     :     0.760728
Ideal value S*(S+1) for S=0.5   :     0.750000
Deviation                       :     0.010728

----------------
ORBITAL ENERGIES
----------------
                 SPIN UP ORBITALS
  NO   OCC          E(Eh)            E(eV) 
   0   1.0000     -20.066800      -546.0454 
   1   1.0000     -10.807069      -294.0753 
   2   1.0000     -10.806947      -294.0720 
   3   1.0000     -10.806067      -294.0480 
   4   1.0000     -10.805860      -294.0424 
   5   1.0000     -10.804528      -294.0061 
   6   1.0000      -1.245427       -33.8898 
   7   1.0000      -1.023606       -27.8537 
   8   1.0000      -0.872049       -23.7297 
   9   1.0000      -0.861905       -23.4536 
  10   1.0000      -0.714729       -19.4488 
  11   1.0000      -0.649512       -17.6741 
  12   1.0000      -0.621169       -16.9029 
  13   1.0000      -0.606566       -16.5055 
  14   1.0000      -0.590524       -16.0690 
  15   1.0000      -0.544620       -14.8199 
  16   1.0000      -0.496182       -13.5018 
  17   1.0000      -0.473985       -12.8978 
  18   1.0000      -0.471529       -12.8310 
  19   1.0000      -0.437434       -11.9032 
  20   1.0000      -0.436214       -11.8700 
  21   1.0000      -0.426641       -11.6095 
  22   1.0000      -0.403986       -10.9930 
  23   1.0000      -0.302930        -8.2431 
  24   0.0000       0.089431         2.4335 
  25   0.0000       0.107138         2.9154 
  26   0.0000       0.119447         3.2503 
  27   0.0000       0.142561         3.8793 
  28   0.0000       0.148017         4.0277 
  29   0.0000       0.162050         4.4096 
  30   0.0000       0.176346         4.7986 
  31   0.0000       0.190435         5.1820 
  32   0.0000       0.192076         5.2266 
  33   0.0000       0.209925         5.7124 
  34   0.0000       0.243899         6.6368 

                 SPIN DOWN ORBITALS
  NO   OCC          E(Eh)            E(eV) 
   0   1.0000     -20.033791      -545.1472 
   1   1.0000     -10.807195      -294.0787 
   2   1.0000     -10.807167      -294.0780 
   3   1.0000     -10.805900      -294.0435 
   4   1.0000     -10.804521      -294.0060 
   5   1.0000     -10.801352      -293.9197 
   6   1.0000      -1.132250       -30.8101 
   7   1.0000      -1.020363       -27.7655 
   8   1.0000      -0.864607       -23.5271 
   9   1.0000      -0.861706       -23.4482 
  10   1.0000      -0.702542       -19.1171 
  11   1.0000      -0.649286       -17.6680 
  12   1.0000      -0.606490       -16.5034 
  13   1.0000      -0.583861       -15.8877 
  14   1.0000      -0.556384       -15.1400 
  15   1.0000      -0.493816       -13.4374 
  16   1.0000      -0.473328       -12.8799 
  17   1.0000      -0.437770       -11.9123 
  18   1.0000      -0.436021       -11.8647 
  19   1.0000      -0.435698       -11.8559 
  20   1.0000      -0.428558       -11.6616 
  21   1.0000      -0.423953       -11.5364 
  22   1.0000      -0.303678        -8.2635 
  23   0.0000      -0.005210        -0.1418 
  24   0.0000       0.093831         2.5533 
  25   0.0000       0.107264         2.9188 
  26   0.0000       0.121752         3.3130 
  27   0.0000       0.142877         3.8879 
  28   0.0000       0.148648         4.0449 
  29   0.0000       0.163131         4.4390 
  30   0.0000       0.176383         4.7996 
  31   0.0000       0.192379         5.2349 
  32   0.0000       0.195833         5.3289 
  33   0.0000       0.212087         5.7712 
*Only the first 10 virtual orbitals were printed.

                    ********************************
                    * MULLIKEN POPULATION ANALYSIS *
                    ********************************

--------------------------------------------
MULLIKEN ATOMIC CHARGES AND SPIN POPULATIONS
--------------------------------------------
   0 C :   -0.168502    0.000323
   1 C :   -0.168384    0.000247
   2 H :    0.100894    0.000192
   3 C :   -0.066102   -0.009099
   4 H :    0.100911    0.000192
   5 C :   -0.114207    0.167645
   6 H :    0.074046    0.004435
   7 H :    0.064975    0.006152
   8 C :   -0.067074   -0.009083
   9 H :    0.047473   -0.062017
  10 H :    0.083286   -0.005003
  11 H :    0.074080    0.004449
  12 H :    0.065122    0.006239
  13 O :   -0.260812    0.921578
  14 H :    0.234295   -0.026249
Sum of atomic charges         :   -0.0000000
Sum of atomic spin populations:    1.0000000

-----------------------------------------------------
MULLIKEN REDUCED ORBITAL CHARGES AND SPIN POPULATIONS
-----------------------------------------------------
CHARGE
  0 C s       :     3.170136  s :     3.170136
      pz      :     0.952750  p :     2.882204
      px      :     0.965863
      py      :     0.963592
      dz2     :     0.011549  d :     0.108305
      dxz     :     0.009707
      dyz     :     0.032783
      dx2y2   :     0.019581
      dxy     :     0.034686
      f0      :     0.000981  f :     0.007856
      f+1     :     0.000906
      f-1     :     0.000551
      f+2     :     0.001815
      f-2     :     0.001003
      f+3     :     0.001819
      f-3     :     0.000780

  1 C s       :     3.170120  s :     3.170120
      pz      :     0.952661  p :     2.882084
      px      :     0.965740
      py      :     0.963683
      dz2     :     0.011535  d :     0.108324
      dxz     :     0.009715
      dyz     :     0.032829
      dx2y2   :     0.019600
      dxy     :     0.034645
      f0      :     0.000980  f :     0.007856
      f+1     :     0.000907
      f-1     :     0.000551
      f+2     :     0.001816
      f-2     :     0.001003
      f+3     :     0.001819
      f-3     :     0.000780

  2 H s       :     0.859786  s :     0.859786
      pz      :     0.013291  p :     0.037362
      px      :     0.013719
      py      :     0.010352
      dz2     :     0.000347  d :     0.001959
      dxz     :     0.000379
      dyz     :     0.000353
      dx2y2   :     0.000508
      dxy     :     0.000372

  3 C s       :     3.083646  s :     3.083646
      pz      :     0.964777  p :     2.863837
      px      :     0.934747
      py      :     0.964314
      dz2     :     0.018514  d :     0.112481
      dxz     :     0.024283
      dyz     :     0.024993
      dx2y2   :     0.015390
      dxy     :     0.029300
      f0      :     0.000533  f :     0.006138
      f+1     :     0.000919
      f-1     :     0.000770
      f+2     :     0.000635
      f-2     :     0.001384
      f+3     :     0.000913
      f-3     :     0.000982

  4 H s       :     0.859773  s :     0.859773
      pz      :     0.013291  p :     0.037357
      px      :     0.013706
      py      :     0.010360
      dz2     :     0.000347  d :     0.001958
      dxz     :     0.000379
      dyz     :     0.000354
      dx2y2   :     0.000508
      dxy     :     0.000371

  5 C s       :     3.085653  s :     3.085653
      pz      :     1.018287  p :     2.919402
      px      :     0.997771
      py      :     0.903344
      dz2     :     0.021693  d :     0.103030
      dxz     :     0.022847
      dyz     :     0.014744
      dx2y2   :     0.023757
      dxy     :     0.019989
      f0      :     0.000846  f :     0.006122
      f+1     :     0.000682
      f-1     :     0.000572
      f+2     :     0.000547
      f-2     :     0.000995
      f+3     :     0.001276
      f-3     :     0.001205

  6 H s       :     0.884254  s :     0.884254
      pz      :     0.010526  p :     0.039604
      px      :     0.012696
      py      :     0.016382
      dz2     :     0.000326  d :     0.002096
      dxz     :     0.000310
      dyz     :     0.000408
      dx2y2   :     0.000595
      dxy     :     0.000458

  7 H s       :     0.893489  s :     0.893489
      pz      :     0.016356  p :     0.039454
      px      :     0.010879
      py      :     0.012219
      dz2     :     0.000612  d :     0.002082
      dxz     :     0.000461
      dyz     :     0.000484
      dx2y2   :     0.000239
      dxy     :     0.000286

  8 C s       :     3.084684  s :     3.084684
      pz      :     0.964763  p :     2.863745
      px      :     0.934589
      py      :     0.964393
      dz2     :     0.018557  d :     0.112507
      dxz     :     0.024323
      dyz     :     0.024943
      dx2y2   :     0.015429
      dxy     :     0.029256
      f0      :     0.000534  f :     0.006139
      f+1     :     0.000921
      f-1     :     0.000770
      f+2     :     0.000633
      f-2     :     0.001384
      f+3     :     0.000915
      f-3     :     0.000981

  9 H s       :     0.883717  s :     0.883717
      pz      :     0.023563  p :     0.065630
      px      :     0.027446
      py      :     0.014622
      dz2     :     0.000673  d :     0.003180
      dxz     :     0.000792
      dyz     :     0.000330
      dx2y2   :     0.000659
      dxy     :     0.000725

 10 H s       :     0.876115  s :     0.876115
      pz      :     0.018237  p :     0.038528
      px      :     0.010986
      py      :     0.009306
      dz2     :     0.000593  d :     0.002070
      dxz     :     0.000604
      dyz     :     0.000681
      dx2y2   :     0.000051
      dxy     :     0.000142

 11 H s       :     0.884212  s :     0.884212
      pz      :     0.010519  p :     0.039611
      px      :     0.012660
      py      :     0.016432
      dz2     :     0.000325  d :     0.002096
      dxz     :     0.000308
      dyz     :     0.000409
      dx2y2   :     0.000594
      dxy     :     0.000459

 12 H s       :     0.893343  s :     0.893343
      pz      :     0.016364  p :     0.039454
      px      :     0.010883
      py      :     0.012207
      dz2     :     0.000612  d :     0.002081
      dxz     :     0.000461
      dyz     :     0.000485
      dx2y2   :     0.000238
      dxy     :     0.000286

 13 O s       :     3.886497  s :     3.886497
      pz      :     1.281989  p :     4.360639
      px      :     1.130796
      py      :     1.947855
      dz2     :     0.002922  d :     0.013253
      dxz     :     0.007429
      dyz     :     0.001108
      dx2y2   :     0.001556
      dxy     :     0.000238
      f0      :     0.000027  f :     0.000423
      f+1     :     0.000069
      f-1     :     0.000036
      f+2     :     0.000138
      f-2     :     0.000016
      f+3     :     0.000080
      f-3     :     0.000057

 14 H s       :     0.678956  s :     0.678956
      pz      :     0.022921  p :     0.078668
      px      :     0.018959
      py      :     0.036788
      dz2     :     0.001810  d :     0.008081
      dxz     :     0.002256
      dyz     :     0.002226
      dx2y2   :     0.000629
      dxy     :     0.001161


SPIN
  0 C s       :     0.000197  s :     0.000197
      pz      :    -0.000022  p :     0.000121
      px      :    -0.000051
      py      :     0.000194
      dz2     :    -0.000021  d :     0.000006
      dxz     :     0.000030
      dyz     :     0.000043
      dx2y2   :    -0.000011
      dxy     :    -0.000035
      f0      :    -0.000001  f :    -0.000001
      f+1     :    -0.000000
      f-1     :     0.000004
      f+2     :    -0.000001
      f-2     :     0.000001
      f+3     :    -0.000004
      f-3     :     0.000000

  1 C s       :     0.000171  s :     0.000171
      pz      :    -0.000043  p :     0.000077
      px      :    -0.000073
      py      :     0.000192
      dz2     :    -0.000021  d :     0.000000
      dxz     :     0.000028
      dyz     :     0.000039
      dx2y2   :    -0.000012
      dxy     :    -0.000034
      f0      :    -0.000001  f :    -0.000001
      f+1     :    -0.000000
      f-1     :     0.000004
      f+2     :    -0.000001
      f-2     :     0.000001
      f+3     :    -0.000004
      f-3     :     0.000000

  2 H s       :     0.000201  s :     0.000201
      pz      :    -0.000010  p :    -0.000009
      px      :     0.000000
      py      :     0.000001
      dz2     :    -0.000000  d :    -0.000000
      dxz     :     0.000000
      dyz     :    -0.000000
      dx2y2   :    -0.000000
      dxy     :    -0.000000

  3 C s       :    -0.002493  s :    -0.002493
      pz      :    -0.003533  p :    -0.009160
      px      :    -0.001473
      py      :    -0.004153
      dz2     :    -0.000200  d :     0.002402
      dxz     :     0.000026
      dyz     :     0.001440
      dx2y2   :     0.000541
      dxy     :     0.000595
      f0      :     0.000011  f :     0.000151
      f+1     :     0.000022
      f-1     :     0.000010
      f+2     :     0.000024
      f-2     :     0.000025
      f+3     :     0.000003
      f-3     :     0.000057

  4 H s       :     0.000202  s :     0.000202
      pz      :    -0.000010  p :    -0.000009
      px      :    -0.000000
      py      :     0.000001
      dz2     :    -0.000000  d :    -0.000001
      dxz     :     0.000000
      dyz     :    -0.000000
      dx2y2   :    -0.000000
      dxy     :    -0.000000

  5 C s       :     0.020572  s :     0.020572
      pz      :     0.056551  p :     0.148802
      px      :     0.083329
      py      :     0.008922
      dz2     :    -0.000361  d :    -0.001615
      dxz     :    -0.000721
      dyz     :     0.000168
      dx2y2   :    -0.000542
      dxy     :    -0.000159
      f0      :    -0.000000  f :    -0.000115
      f+1     :    -0.000061
      f-1     :    -0.000011
      f+2     :     0.000048
      f-2     :    -0.000060
      f+3     :    -0.000047
      f-3     :     0.000016

  6 H s       :     0.004311  s :     0.004311
      pz      :     0.000031  p :     0.000126
      px      :     0.000011
      py      :     0.000084
      dz2     :    -0.000000  d :    -0.000002
      dxz     :    -0.000001
      dyz     :     0.000001
      dx2y2   :    -0.000002
      dxy     :     0.000000

  7 H s       :     0.006066  s :     0.006066
      pz      :     0.000090  p :     0.000079
      px      :     0.000042
      py      :    -0.000053
      dz2     :     0.000008  d :     0.000007
      dxz     :     0.000000
      dyz     :    -0.000000
      dx2y2   :    -0.000001
      dxy     :     0.000000

  8 C s       :    -0.002586  s :    -0.002586
      pz      :    -0.003528  p :    -0.009054
      px      :    -0.001432
      py      :    -0.004094
      dz2     :    -0.000198  d :     0.002406
      dxz     :     0.000029
      dyz     :     0.001439
      dx2y2   :     0.000546
      dxy     :     0.000589
      f0      :     0.000011  f :     0.000152
      f+1     :     0.000022
      f-1     :     0.000009
      f+2     :     0.000023
      f-2     :     0.000026
      f+3     :     0.000003
      f-3     :     0.000057

  9 H s       :    -0.076527  s :    -0.076527
      pz      :     0.004039  p :     0.014214
      px      :     0.009960
      py      :     0.000215
      dz2     :     0.000009  d :     0.000296
      dxz     :     0.000167
      dyz     :     0.000006
      dx2y2   :     0.000097
      dxy     :     0.000016

 10 H s       :    -0.006741  s :    -0.006741
      pz      :     0.000640  p :     0.001616
      px      :     0.000961
      py      :     0.000015
      dz2     :     0.000046  d :     0.000122
      dxz     :     0.000053
      dyz     :     0.000008
      dx2y2   :     0.000013
      dxy     :     0.000001

 11 H s       :     0.004326  s :     0.004326
      pz      :     0.000031  p :     0.000125
      px      :     0.000010
      py      :     0.000085
      dz2     :    -0.000000  d :    -0.000002
      dxz     :    -0.000001
      dyz     :     0.000001
      dx2y2   :    -0.000002
      dxy     :     0.000001

 12 H s       :     0.006152  s :     0.006152
      pz      :     0.000091  p :     0.000080
      px      :     0.000041
      py      :    -0.000052
      dz2     :     0.000008  d :     0.000007
      dxz     :     0.000000
      dyz     :    -0.000000
      dx2y2   :    -0.000001
      dxy     :     0.000000

 13 O s       :     0.015318  s :     0.015318
      pz      :     0.307949  p :     0.906206
      px      :     0.595208
      py      :     0.003050
      dz2     :     0.000515  d :     0.000163
      dxz     :    -0.000799
      dyz     :     0.000082
      dx2y2   :     0.000354
      dxy     :     0.000010
      f0      :     0.000027  f :    -0.000109
      f+1     :    -0.000254
      f-1     :     0.000014
      f+2     :     0.000019
      f-2     :    -0.000030
      f+3     :     0.000065
      f-3     :     0.000049

 14 H s       :    -0.033856  s :    -0.033856
      pz      :     0.002314  p :     0.006529
      px      :     0.006481
      py      :    -0.002265
      dz2     :     0.000839  d :     0.001079
      dxz     :     0.000105
      dyz     :    -0.000095
      dx2y2   :     0.000277
      dxy     :    -0.000046



                     *******************************
                     * LOEWDIN POPULATION ANALYSIS *
                     *******************************

-------------------------------------------
LOEWDIN ATOMIC CHARGES AND SPIN POPULATIONS
-------------------------------------------
   0 C :   -0.012001   -0.000270
   1 C :   -0.011938   -0.000295
   2 H :    0.001907   -0.000013
   3 C :   -0.015390    0.004275
   4 H :    0.001946   -0.000017
   5 C :    0.029387    0.087595
   6 H :    0.014080    0.001603
   7 H :    0.013678    0.003206
   8 C :   -0.015337    0.004390
   9 H :   -0.063822    0.046204
  10 H :    0.003269    0.004608
  11 H :    0.014131    0.001610
  12 H :    0.013636    0.003248
  13 O :    0.176867    0.805572
  14 H :   -0.150414    0.038284

----------------------------------------------------
LOEWDIN REDUCED ORBITAL CHARGES AND SPIN POPULATIONS
----------------------------------------------------
CHARGE
  0 C s       :     2.734903  s :     2.734903
      pz      :     0.895750  p :     2.840142
      px      :     0.903831
      py      :     1.040562
      dz2     :     0.045613  d :     0.393868
      dxz     :     0.046640
      dyz     :     0.107556
      dx2y2   :     0.078122
      dxy     :     0.115938
      f0      :     0.005822  f :     0.043088
      f+1     :     0.004029
      f-1     :     0.004260
      f+2     :     0.008603
      f-2     :     0.003721
      f+3     :     0.010646
      f-3     :     0.006006

  1 C s       :     2.734941  s :     2.734941
      pz      :     0.895770  p :     2.840083
      px      :     0.903728
      py      :     1.040586
      dz2     :     0.045543  d :     0.393832
      dxz     :     0.046613
      dyz     :     0.107669
      dx2y2   :     0.078155
      dxy     :     0.115851
      f0      :     0.005817  f :     0.043081
      f+1     :     0.004036
      f-1     :     0.004256
      f+2     :     0.008599
      f-2     :     0.003724
      f+3     :     0.010640
      f-3     :     0.006009

  2 H s       :     0.819614  s :     0.819614
      pz      :     0.051190  p :     0.151072
      px      :     0.054212
      py      :     0.045669
      dz2     :     0.004793  d :     0.027407
      dxz     :     0.005625
      dyz     :     0.005264
      dx2y2   :     0.005972
      dxy     :     0.005753

  3 C s       :     2.688560  s :     2.688560
      pz      :     0.974307  p :     2.876107
      px      :     0.955239
      py      :     0.946560
      dz2     :     0.063976  d :     0.407912
      dxz     :     0.087411
      dyz     :     0.087936
      dx2y2   :     0.059865
      dxy     :     0.108725
      f0      :     0.004923  f :     0.042811
      f+1     :     0.005704
      f-1     :     0.005995
      f+2     :     0.005189
      f-2     :     0.006788
      f+3     :     0.006970
      f-3     :     0.007242

  4 H s       :     0.819618  s :     0.819618
      pz      :     0.051218  p :     0.151037
      px      :     0.054118
      py      :     0.045701
      dz2     :     0.004800  d :     0.027398
      dxz     :     0.005615
      dyz     :     0.005280
      dx2y2   :     0.005958
      dxy     :     0.005745

  5 C s       :     2.687441  s :     2.687441
      pz      :     0.983039  p :     2.844841
      px      :     0.939171
      py      :     0.922631
      dz2     :     0.073130  d :     0.395601
      dxz     :     0.087841
      dyz     :     0.056971
      dx2y2   :     0.089375
      dxy     :     0.088283
      f0      :     0.004535  f :     0.042730
      f+1     :     0.003619
      f-1     :     0.004525
      f+2     :     0.007395
      f-2     :     0.007649
      f+3     :     0.006539
      f-3     :     0.008469

  6 H s       :     0.809771  s :     0.809771
      pz      :     0.044753  p :     0.147514
      px      :     0.048752
      py      :     0.054009
      dz2     :     0.004212  d :     0.028636
      dxz     :     0.004570
      dyz     :     0.005610
      dx2y2   :     0.007390
      dxy     :     0.006853

  7 H s       :     0.809321  s :     0.809321
      pz      :     0.058875  p :     0.148626
      px      :     0.046157
      py      :     0.043594
      dz2     :     0.007937  d :     0.028375
      dxz     :     0.007079
      dyz     :     0.006759
      dx2y2   :     0.002960
      dxy     :     0.003640

  8 C s       :     2.688546  s :     2.688546
      pz      :     0.974329  p :     2.875932
      px      :     0.955030
      py      :     0.946574
      dz2     :     0.064132  d :     0.408036
      dxz     :     0.087490
      dyz     :     0.087767
      dx2y2   :     0.059968
      dxy     :     0.108680
      f0      :     0.004925  f :     0.042822
      f+1     :     0.005713
      f-1     :     0.005996
      f+2     :     0.005195
      f-2     :     0.006784
      f+3     :     0.006982
      f-3     :     0.007226

  9 H s       :     0.757040  s :     0.757040
      pz      :     0.093496  p :     0.268216
      px      :     0.122520
      py      :     0.052200
      dz2     :     0.008479  d :     0.038567
      dxz     :     0.010778
      dyz     :     0.003713
      dx2y2   :     0.007002
      dxy     :     0.008595

 10 H s       :     0.817504  s :     0.817504
      pz      :     0.066965  p :     0.150726
      px      :     0.044595
      py      :     0.039166
      dz2     :     0.009498  d :     0.028501
      dxz     :     0.009341
      dyz     :     0.007560
      dx2y2   :     0.000737
      dxy     :     0.001364

 11 H s       :     0.809762  s :     0.809762
      pz      :     0.044732  p :     0.147473
      px      :     0.048667
      py      :     0.054074
      dz2     :     0.004210  d :     0.028634
      dxz     :     0.004550
      dyz     :     0.005627
      dx2y2   :     0.007390
      dxy     :     0.006857

 12 H s       :     0.809328  s :     0.809328
      pz      :     0.058902  p :     0.148658
      px      :     0.046194
      py      :     0.043562
      dz2     :     0.007947  d :     0.028379
      dxz     :     0.007088
      dyz     :     0.006761
      dx2y2   :     0.002947
      dxy     :     0.003636

 13 O s       :     3.504680  s :     3.504680
      pz      :     1.344806  p :     4.291283
      px      :     1.118852
      py      :     1.827625
      dz2     :     0.004314  d :     0.025519
      dxz     :     0.016104
      dyz     :     0.000210
      dx2y2   :     0.004750
      dxy     :     0.000140
      f0      :     0.000191  f :     0.001651
      f+1     :     0.000554
      f-1     :     0.000077
      f+2     :     0.000487
      f-2     :     0.000238
      f+3     :     0.000083
      f-3     :     0.000022

 14 H s       :     0.708216  s :     0.708216
      pz      :     0.144400  p :     0.348745
      px      :     0.090957
      py      :     0.113388
      dz2     :     0.022423  d :     0.093453
      dxz     :     0.024956
      dyz     :     0.025216
      dx2y2   :     0.007516
      dxy     :     0.013342


SPIN
  0 C s       :     0.000033  s :     0.000033
      pz      :    -0.000019  p :    -0.000038
      px      :    -0.000031
      py      :     0.000011
      dz2     :    -0.000151  d :    -0.000237
      dxz     :     0.000001
      dyz     :     0.000113
      dx2y2   :    -0.000150
      dxy     :    -0.000050
      f0      :    -0.000011  f :    -0.000027
      f+1     :    -0.000008
      f-1     :     0.000011
      f+2     :    -0.000003
      f-2     :     0.000000
      f+3     :    -0.000016
      f-3     :    -0.000001

  1 C s       :     0.000032  s :     0.000032
      pz      :    -0.000030  p :    -0.000056
      px      :    -0.000037
      py      :     0.000011
      dz2     :    -0.000150  d :    -0.000243
      dxz     :    -0.000003
      dyz     :     0.000110
      dx2y2   :    -0.000151
      dxy     :    -0.000050
      f0      :    -0.000011  f :    -0.000028
      f+1     :    -0.000008
      f-1     :     0.000011
      f+2     :    -0.000003
      f-2     :     0.000000
      f+3     :    -0.000016
      f-3     :    -0.000001

  2 H s       :     0.000021  s :     0.000021
      pz      :    -0.000026  p :    -0.000032
      px      :    -0.000006
      py      :    -0.000000
      dz2     :    -0.000001  d :    -0.000001
      dxz     :     0.000001
      dyz     :    -0.000001
      dx2y2   :     0.000001
      dxy     :    -0.000001

  3 C s       :    -0.000692  s :    -0.000692
      pz      :    -0.001379  p :    -0.004087
      px      :    -0.001151
      py      :    -0.001557
      dz2     :     0.000207  d :     0.008141
      dxz     :     0.000315
      dyz     :     0.003634
      dx2y2   :     0.001432
      dxy     :     0.002554
      f0      :     0.000064  f :     0.000912
      f+1     :     0.000154
      f-1     :     0.000115
      f+2     :     0.000125
      f-2     :     0.000074
      f+3     :     0.000041
      f-3     :     0.000340

  4 H s       :     0.000018  s :     0.000018
      pz      :    -0.000027  p :    -0.000034
      px      :    -0.000007
      py      :    -0.000000
      dz2     :    -0.000001  d :    -0.000001
      dxz     :     0.000001
      dyz     :    -0.000001
      dx2y2   :     0.000001
      dxy     :    -0.000001

  5 C s       :     0.006231  s :     0.006231
      pz      :     0.030712  p :     0.090885
      px      :     0.056287
      py      :     0.003886
      dz2     :    -0.000856  d :    -0.008911
      dxz     :    -0.004501
      dyz     :    -0.000104
      dx2y2   :    -0.002743
      dxy     :    -0.000706
      f0      :    -0.000011  f :    -0.000610
      f+1     :    -0.000132
      f-1     :    -0.000033
      f+2     :    -0.000227
      f-2     :    -0.000096
      f+3     :    -0.000105
      f-3     :    -0.000005

  6 H s       :     0.002080  s :     0.002080
      pz      :    -0.000043  p :    -0.000376
      px      :    -0.000042
      py      :    -0.000292
      dz2     :    -0.000010  d :    -0.000100
      dxz     :    -0.000007
      dyz     :    -0.000020
      dx2y2   :    -0.000056
      dxy     :    -0.000008

  7 H s       :     0.003186  s :     0.003186
      pz      :    -0.000057  p :     0.000064
      px      :     0.000087
      py      :     0.000034
      dz2     :     0.000006  d :    -0.000044
      dxz     :    -0.000014
      dyz     :    -0.000020
      dx2y2   :    -0.000007
      dxy     :    -0.000009

  8 C s       :    -0.000682  s :    -0.000682
      pz      :    -0.001380  p :    -0.004009
      px      :    -0.001105
      py      :    -0.001524
      dz2     :     0.000206  d :     0.008168
      dxz     :     0.000324
      dyz     :     0.003643
      dx2y2   :     0.001457
      dxy     :     0.002538
      f0      :     0.000065  f :     0.000913
      f+1     :     0.000155
      f-1     :     0.000114
      f+2     :     0.000123
      f-2     :     0.000075
      f+3     :     0.000041
      f-3     :     0.000339

  9 H s       :    -0.018161  s :    -0.018161
      pz      :     0.019390  p :     0.060598
      px      :     0.041285
      py      :    -0.000077
      dz2     :     0.000291  d :     0.003767
      dxz     :     0.001949
      dyz     :     0.000071
      dx2y2   :     0.001333
      dxy     :     0.000123

 10 H s       :    -0.003292  s :    -0.003292
      pz      :     0.002267  p :     0.006329
      px      :     0.003904
      py      :     0.000158
      dz2     :     0.000575  d :     0.001571
      dxz     :     0.000784
      dyz     :     0.000068
      dx2y2   :     0.000137
      dxy     :     0.000007

 11 H s       :     0.002086  s :     0.002086
      pz      :    -0.000044  p :    -0.000377
      px      :    -0.000041
      py      :    -0.000292
      dz2     :    -0.000010  d :    -0.000099
      dxz     :    -0.000007
      dyz     :    -0.000019
      dx2y2   :    -0.000055
      dxy     :    -0.000008

 12 H s       :     0.003214  s :     0.003214
      pz      :    -0.000056  p :     0.000077
      px      :     0.000095
      py      :     0.000038
      dz2     :     0.000007  d :    -0.000043
      dxz     :    -0.000014
      dyz     :    -0.000020
      dx2y2   :    -0.000007
[...]
      dxz     :     0.000003
      dyz     :     0.000004
      dx2y2   :     0.000003
      dxy     :    -0.000000
  7 H s       :     0.000013  s :     0.000013
      pz      :     0.000005  p :    -0.000008
      px      :    -0.000008
      py      :    -0.000004
      dz2     :     0.000001  d :     0.000006
      dxz     :     0.000004
      dyz     :     0.000000
      dx2y2   :    -0.000000
      dxy     :     0.000001
  8 C s       :    -0.000014  s :    -0.000014
      pz      :    -0.000005  p :    -0.000127
      px      :    -0.000096
      py      :    -0.000026
      dz2     :     0.000001  d :     0.000008
      dxz     :     0.000000
      dyz     :     0.000007
      dx2y2   :    -0.000002
      dxy     :     0.000003
      f0      :     0.000000  f :    -0.000000
      f+1     :     0.000000
      f-1     :    -0.000000
      f+2     :     0.000000
      f-2     :    -0.000000
      f+3     :    -0.000001
      f-3     :    -0.000000
  9 H s       :    -0.000098  s :    -0.000098
      pz      :    -0.000008  p :    -0.000030
      px      :    -0.000019
      py      :    -0.000002
      dz2     :    -0.000005  d :    -0.000010
      dxz     :    -0.000000
      dyz     :    -0.000000
      dx2y2   :    -0.000001
      dxy     :    -0.000003
 10 H s       :    -0.000171  s :    -0.000171
      pz      :    -0.000010  p :    -0.000043
      px      :    -0.000027
      py      :    -0.000006
      dz2     :    -0.000005  d :    -0.000009
      dxz     :    -0.000001
      dyz     :     0.000000
      dx2y2   :     0.000000
      dxy     :    -0.000002
 11 H s       :     0.000009  s :     0.000009
      pz      :    -0.000001  p :    -0.000009
      px      :    -0.000006
      py      :    -0.000003
      dz2     :    -0.000000  d :    -0.000002
      dxz     :    -0.000000
      dyz     :    -0.000000
      dx2y2   :    -0.000000
      dxy     :    -0.000001
 12 H s       :     0.000022  s :     0.000022
      pz      :    -0.000001  p :    -0.000010
      px      :    -0.000008
      py      :    -0.000001
      dz2     :    -0.000001  d :    -0.000002
      dxz     :    -0.000001
      dyz     :    -0.000000
      dx2y2   :    -0.000000
      dxy     :    -0.000000
 13 O s       :     0.009947  s :     0.009947
      pz      :     0.158764  p :     0.934378
      px      :     0.285734
      py      :     0.489880
      dz2     :     0.000028  d :     0.001951
      dxz     :     0.000170
      dyz     :     0.000476
      dx2y2   :     0.000727
      dxy     :     0.000549
      f0      :     0.000012  f :     0.000397
      f+1     :    -0.000023
      f-1     :     0.000087
      f+2     :     0.000069
      f-2     :     0.000112
      f+3     :     0.000172
      f-3     :    -0.000033
 14 H s       :    -0.019568  s :    -0.019568
      pz      :     0.005713  p :     0.051259
      px      :     0.017086
      py      :     0.028460
      dz2     :     0.000901  d :     0.021922
      dxz     :     0.003571
      dyz     :     0.000551
      dx2y2   :     0.015554
      dxy     :     0.001345


                      *****************************
                      * MAYER POPULATION ANALYSIS *
                      *****************************

  NA   - Mulliken gross atomic population
  ZA   - Total nuclear charge
  QA   - Mulliken gross atomic charge
  VA   - Mayer's total valence
  BVA  - Mayer's bonded valence
  FA   - Mayer's free valence

  ATOM       NA         ZA         QA         VA         BVA        FA
  0 C      6.1446     6.0000    -0.1446     3.9862     3.7627     0.2235
  1 C      6.1481     6.0000    -0.1481     3.9823     3.7586     0.2237
  2 H      0.8956     1.0000     0.1044     1.0133     0.9792     0.0340
  3 C      6.1043     6.0000    -0.1043     3.9134     3.7309     0.1825
  4 H      0.8942     1.0000     0.1058     1.0142     0.9803     0.0340
  5 C      6.2152     6.0000    -0.2152     4.0133     3.8241     0.1893
  6 H      0.9179     1.0000     0.0821     1.0236     0.9879     0.0357
  7 H      0.9145     1.0000     0.0855     1.0077     0.9715     0.0362
  8 C      6.1116     6.0000    -0.1116     3.9954     3.8126     0.1828
  9 H      0.9134     1.0000     0.0866     1.0124     0.9766     0.0358
 10 H      0.9146     1.0000     0.0854     1.0135     0.9777     0.0358
 11 H      0.9170     1.0000     0.0830     1.0112     0.9755     0.0356
 12 H      0.9204     1.0000     0.0796     1.0107     0.9744     0.0363
 13 O      8.2352     8.0000    -0.2352     2.1045     0.9945     1.1100
 14 H      0.7535     1.0000     0.2465     1.0178     0.9841     0.0336

  Mayer bond orders larger than 0.100000
B(  0-C ,  1-C ) :   1.8315 B(  0-C ,  2-H ) :   0.9520 B(  0-C ,  8-C ) :   0.9550 
B(  1-C ,  3-C ) :   0.9408 B(  1-C ,  4-H ) :   0.9534 B(  3-C ,  5-C ) :   0.9043 
B(  3-C ,  6-H ) :   0.9724 B(  3-C ,  7-H ) :   0.9516 B(  5-C ,  8-C ) :   0.9274 
B(  5-C ,  9-H ) :   0.9715 B(  5-C , 10-H ) :   0.9730 B(  8-C , 11-H ) :   0.9749 
B(  8-C , 12-H ) :   0.9574 B( 13-O , 14-H ) :   0.9672 


-------
TIMINGS
-------

Total time                :  114.125 sec
Integral trafo            :   14.959 sec ( 13.1%)
FC preparation            :    4.536 sec (  4.0%)
I/O of integrals          :   19.950 sec ( 17.5%)
K(i,j) operators          :    0.966 sec (  0.8%)
T(i,j) pair energies      :    0.077 sec (  0.1%)
V**(-1/2)                 :    0.233 sec (  0.2%)
Gamma(ia|P)               :    0.945 sec (  0.8%)
Gamma-Trafo               :    0.228 sec (  0.2%)
D(virtual)                :    0.196 sec (  0.2%)
D(internal)               :    0.380 sec (  0.3%)
W(virtual)                :    0.212 sec (  0.2%)
W(internal)               :    0.328 sec (  0.3%)
L(virtual)                :    0.297 sec (  0.3%)
L(internal)               :    0.044 sec (  0.0%)
XC kernel                 :    0.241 sec (  0.2%)
G(D)                      :    4.259 sec (  3.7%)
G(Z)                      :    3.977 sec (  3.5%)
Z-vector solution         :   34.113 sec ( 29.9%)
3-index derivative        :    0.713 sec (  0.6%)
2-index derivative        :    0.048 sec (  0.0%)
Fock matrix gradient      :   23.017 sec ( 20.2%)


---------------------------------------
MP2 TOTAL ENERGY:     -270.654117309 Eh
---------------------------------------

The final MP2 gradient
  0:  -0.00000255   0.00000453  -0.00000069
  1:  -0.00000065  -0.00000292  -0.00000423
  2:   0.00000008  -0.00000302  -0.00000023
  3:  -0.00000353  -0.00000331   0.00000809
  4:   0.00000064   0.00000075   0.00000051
  5:   0.00000501   0.00000709   0.00000394
  6:  -0.00000321  -0.00000211  -0.00000342
  7:   0.00000113  -0.00000056  -0.00000085
  8:  -0.00000487  -0.00000554  -0.00000479
  9:  -0.00000258  -0.00000483  -0.00000040
 10:   0.00000008  -0.00000459  -0.00000103
 11:  -0.00000188  -0.00000119   0.00000017
 12:  -0.00000197  -0.00000037  -0.00000014
 13:   0.00000349   0.00000074  -0.00000065
 14:  -0.00000528  -0.00000625   0.00000185

-----------------------------------
NORM OF THE MP2 GRADIENT:  0.000022
-----------------------------------

Maximum memory used throughout the entire MP2-calculation: 71.0 MB


-------------------------------------------------------------------------------
                          DFT DISPERSION CORRECTION                            
                                                                               
                                DFTD4 V3.4.0                                   
-------------------------------------------------------------------------------
The REV-DSD-PBEP86-2021 functional is recognized
A user input s6-coefficient scaling factor has been recognized
A user input a1-coefficient scaling factor has been recognized
A user input s8-coefficient scaling factor has been recognized
A user input a2-coefficient scaling factor has been recognized
A user input s9-coefficient scaling factor has been recognized
Active option DFTDOPT                   ...         5   

-------------------------   ----------------
Dispersion correction           -0.007029207
-------------------------   ----------------


-------------------------   --------------------
FINAL SINGLE POINT ENERGY      -270.661146516146
-------------------------   --------------------

                                *** OPTIMIZATION RUN DONE ***



           ************************************************************
           *        Program running with 8 parallel MPI-processes     *
           *              working on a common directory               *
           ************************************************************

------------------------------------------------------------------------------
                              ORCA PROPERTY CALCULATIONS
------------------------------------------------------------------------------

GBWName                                 ... path_back.gbw
Number of atoms                         ...     15
Number of basis functions               ...    312
Max core memory                         ...   6000 MB

Electric properties:
Dipole moment                           ... YES
Quadrupole moment                       ...  NO
Static polarizability (Dipole/Dipole)   ...  NO
Static polarizability (Dipole/Quad.)    ...  NO
Static polarizability (Quad./Quad.)     ...  NO
Static polarizability (Velocity)        ...  NO
Static hyperpolarizability              ...  NO

Atomic electric properties:
Dipole moment                           ...  NO
Quadrupole moment                       ...  NO
Static polarizability                   ...  NO

Choice of electric origin               ... Center of mass
Position of electric origin             ...     0.231001     0.305253     0.176870

General magnetic properties:
Magnetizability                         ...  NO

EPR properties:
g-Tensor (aka g-matrix)                 ...  NO
Zero-Field splitting spin-orbit         ...  NO
Zero-field splitting spin-spin          ...  NO
Hyperfine couplings                     ...  NO (   0 nuclei)
Quadrupole couplings                    ...  NO (   0 nuclei)
Contact density                         ...  NO (   0 nuclei)

NMR properties:
Chemical shifts                         ...  NO (   0 nuclei)
Spin-rotation constants                 ...  NO (   0 nuclei)
Spin-spin couplings                     ...  NO (   0 nuclei,    0 pairs)

Choice of magnetic origin               ... GIAO
Position of magnetic origin             ...     0.000000     0.000000     0.000000

Properties with geometric perturbations:
SCF Hessian                             ...  NO
IR spectrum                             ...  NO
VCD spectrum                            ...  NO
X-ray spectroscopy properties:
SCF XES/XAS/RIXS spectra                ...  NO

SCF SOC stabilization energy            ...  NO
Diagonal Born-Oppenheimer correction    ...  NO

-------------
DIPOLE MOMENT
-------------

Method             : SCF
Type of density    : Electron Density
Multiplicity       :   2
Irrep              :   0
Energy             :  -270.1103199190807231 Eh
Basis              : AO
                                X                 Y                 Z
Electronic contribution:      1.453064048       1.546194451      -0.658647862
Nuclear contribution   :     -2.074767327      -2.045803080       0.811818852
                        -----------------------------------------
Total Dipole Moment    :     -0.621703279      -0.499608629       0.153170990
                        -----------------------------------------
Magnitude (a.u.)       :      0.812148448
Magnitude (Debye)      :      2.064317300



--------------------
Rotational spectrum 
--------------------
 
Rotational constants in cm-1:             0.232895             0.051550             0.044046 
Rotational constants in MHz :          6982.014630          1545.419687          1320.475938 

Dipole components along the rotational axes: 
x,y,z [a.u.] :     0.744824    -0.289313     0.145327 
x,y,z [Debye]:     1.893192    -0.735376     0.369393 

 

-------------
DIPOLE MOMENT
-------------

Method             : MP2
Type of density    : Electron Density
Multiplicity       :   2
Level              : Unrelaxed density
Irrep              :   0
Energy             :     0.0000000000000000 Eh
Basis              : AO
                                X                 Y                 Z
Electronic contribution:      1.458904723       1.551210602      -0.660272428
Nuclear contribution   :     -2.074767327      -2.045803080       0.811818852
                        -----------------------------------------
Total Dipole Moment    :     -0.615862604      -0.494592478       0.151546424
                        -----------------------------------------
Magnitude (a.u.)       :      0.804285263
Magnitude (Debye)      :      2.044330673



--------------------
Rotational spectrum 
--------------------
 
Rotational constants in cm-1:             0.232895             0.051550             0.044046 
Rotational constants in MHz :          6982.014630          1545.419687          1320.475938 

Dipole components along the rotational axes: 
x,y,z [a.u.] :     0.737726    -0.286256     0.143846 
x,y,z [Debye]:     1.875152    -0.727606     0.365627 

 

-------------
DIPOLE MOMENT
-------------

Method             : MP2
Type of density    : Electron Density
Multiplicity       :   2
Level              : Relaxed density
Irrep              :   0
Energy             :     0.0000000000000000 Eh
Basis              : AO
                                X                 Y                 Z
Electronic contribution:      1.471486153       1.565392368      -0.668012803
Nuclear contribution   :     -2.074767327      -2.045803080       0.811818852
                        -----------------------------------------
Total Dipole Moment    :     -0.603281174      -0.480410712       0.143806049
                        -----------------------------------------
Magnitude (a.u.)       :      0.784488883
Magnitude (Debye)      :      1.994012273



--------------------
Rotational spectrum 
--------------------
 
Rotational constants in cm-1:             0.232895             0.051550             0.044046 
Rotational constants in MHz :          6982.014630          1545.419687          1320.475938 

Dipole components along the rotational axes: 
x,y,z [a.u.] :     0.721563    -0.275576     0.137212 
x,y,z [Debye]:     1.834068    -0.700459     0.348766 

 

Dipole moment calculation done in   0.4 sec 

Maximum memory used throughout the entire PROP-calculation: 20.4 MB

----------------------------------------------------------------------------
                           ORCA NUMERICAL FREQUENCIES
                              (8-process run)
----------------------------------------------------------------------------

Number of atoms                ... 15
Central differences            ... used
Translation invariance         ... used
Number of displacements        ... 90 - 6
Numerical increment            ... 5.000e-03 bohr
IR-spectrum generation         ... on
Raman-spectrum generation      ... off
Surface Crossing Hessian       ... off

The output will be reduced. Please look at the following files:
SCF program output             ... >path_back.lastscf
Integral program output        ... >path_back.lastint
Gradient program output        ... >path_back.lastgrad
Dipole moment program output   ... >path_back.lastmom

List of participating nodes    ...  path_back.hostnames

	<< Calculating gradient on displaced geometry   1 (of  84) >>
	<< Calculating gradient on displaced geometry   7 (of  84) >>
	<< Calculating gradient on displaced geometry   4 (of  84) >>
	<< Calculating gradient on displaced geometry   2 (of  84) >>
	<< Calculating gradient on displaced geometry   3 (of  84) >>
	<< Calculating gradient on displaced geometry   5 (of  84) >>
	<< Calculating gradient on displaced geometry   6 (of  84) >>
	<< Calculating gradient on displaced geometry   8 (of  84) >>
	<< Calculating gradient on displaced geometry   9 (of  84) >>
	<< Calculating gradient on displaced geometry  10 (of  84) >>
	<< Calculating gradient on displaced geometry  11 (of  84) >>
	<< Calculating gradient on displaced geometry  12 (of  84) >>
	<< Calculating gradient on displaced geometry  13 (of  84) >>
	<< Calculating gradient on displaced geometry  14 (of  84) >>
	<< Calculating gradient on displaced geometry  15 (of  84) >>
	<< Calculating gradient on displaced geometry  16 (of  84) >>
	<< Calculating gradient on displaced geometry  17 (of  84) >>
	<< Calculating gradient on displaced geometry  18 (of  84) >>
	<< Calculating gradient on displaced geometry  19 (of  84) >>
	<< Calculating gradient on displaced geometry  20 (of  84) >>
	<< Calculating gradient on displaced geometry  21 (of  84) >>
	<< Calculating gradient on displaced geometry  22 (of  84) >>
	<< Calculating gradient on displaced geometry  23 (of  84) >>
	<< Calculating gradient on displaced geometry  24 (of  84) >>
	<< Calculating gradient on displaced geometry  25 (of  84) >>
	<< Calculating gradient on displaced geometry  26 (of  84) >>
	<< Calculating gradient on displaced geometry  27 (of  84) >>
	<< Calculating gradient on displaced geometry  28 (of  84) >>
	<< Calculating gradient on displaced geometry  29 (of  84) >>
	<< Calculating gradient on displaced geometry  30 (of  84) >>
	<< Calculating gradient on displaced geometry  31 (of  84) >>
	<< Calculating gradient on displaced geometry  32 (of  84) >>
	<< Calculating gradient on displaced geometry  33 (of  84) >>
	<< Calculating gradient on displaced geometry  34 (of  84) >>
	<< Calculating gradient on displaced geometry  35 (of  84) >>
	<< Calculating gradient on displaced geometry  36 (of  84) >>
	<< Calculating gradient on displaced geometry  37 (of  84) >>
	<< Calculating gradient on displaced geometry  38 (of  84) >>
	<< Calculating gradient on displaced geometry  39 (of  84) >>
	<< Calculating gradient on displaced geometry  40 (of  84) >>
	<< Calculating gradient on displaced geometry  41 (of  84) >>
	<< Calculating gradient on displaced geometry  42 (of  84) >>
	<< Calculating gradient on displaced geometry  43 (of  84) >>
	<< Calculating gradient on displaced geometry  44 (of  84) >>
	<< Calculating gradient on displaced geometry  45 (of  84) >>
	<< Calculating gradient on displaced geometry  46 (of  84) >>
	<< Calculating gradient on displaced geometry  47 (of  84) >>
	<< Calculating gradient on displaced geometry  48 (of  84) >>
	<< Calculating gradient on displaced geometry  49 (of  84) >>
	<< Calculating gradient on displaced geometry  50 (of  84) >>
	<< Calculating gradient on displaced geometry  51 (of  84) >>
	<< Calculating gradient on displaced geometry  52 (of  84) >>
	<< Calculating gradient on displaced geometry  53 (of  84) >>
	<< Calculating gradient on displaced geometry  54 (of  84) >>
	<< Calculating gradient on displaced geometry  55 (of  84) >>
	<< Calculating gradient on displaced geometry  56 (of  84) >>
	<< Calculating gradient on displaced geometry  57 (of  84) >>
	<< Calculating gradient on displaced geometry  58 (of  84) >>
	<< Calculating gradient on displaced geometry  59 (of  84) >>
	<< Calculating gradient on displaced geometry  60 (of  84) >>
	<< Calculating gradient on displaced geometry  61 (of  84) >>
	<< Calculating gradient on displaced geometry  62 (of  84) >>
	<< Calculating gradient on displaced geometry  63 (of  84) >>
	<< Calculating gradient on displaced geometry  64 (of  84) >>
	<< Calculating gradient on displaced geometry  65 (of  84) >>
	<< Calculating gradient on displaced geometry  66 (of  84) >>
	<< Calculating gradient on displaced geometry  67 (of  84) >>
	<< Calculating gradient on displaced geometry  68 (of  84) >>
	<< Calculating gradient on displaced geometry  69 (of  84) >>
	<< Calculating gradient on displaced geometry  70 (of  84) >>
	<< Calculating gradient on displaced geometry  71 (of  84) >>
	<< Calculating gradient on displaced geometry  72 (of  84) >>
