15
* (null), Energy   -1000.0000000
C    -1.439029   -0.667712   -0.549616    0.015764    0.001794    0.009931
C    -1.437587    0.667066   -0.550348    0.012923   -0.001541    0.012567
H    -2.099542   -1.287730   -1.142377    0.019656   -0.029441    0.043348
C    -0.425165    1.232405    0.414199    0.127569   -0.033687   -0.083226
H    -2.096591    1.287867   -1.143979    0.007084    0.020949    0.050053
C     0.405839   -0.001535    0.791219    0.122023    0.002916   -0.128935
H     0.188077    2.022821   -0.024582    0.057168    0.031566   -0.062912
H    -0.921583    1.663390    1.292275    0.266367   -0.121836    0.056558
C    -0.427732   -1.234209    0.415423    0.133755    0.035469   -0.085779
H     1.329900   -0.002938    0.083282    1.411748    0.049135   -0.945464
H     0.797165   -0.001452    1.808264    0.610986    0.004000   -0.325537
H     0.183642   -2.026531   -0.022540    0.067649   -0.028324   -0.061390
H    -0.924988   -1.663219    1.294005    0.267508    0.119008    0.049623
O     2.538250    0.003895   -0.670899   -0.483639   -0.004707    0.291921
H     3.133571    0.008101    0.093337    0.058495   -0.029351   -0.155584
15
* Frequency(6) -647.3450
C    -1.437237   -0.667508   -0.548487    0.015764    0.001794    0.009931
C    -1.436118    0.666891   -0.548919    0.012923   -0.001541    0.012567
H    -2.097309   -1.291076   -1.137451    0.019656   -0.029441    0.043348
C    -0.410667    1.228577    0.404741    0.127569   -0.033687   -0.083226
H    -2.095786    1.290248   -1.138290    0.007084    0.020949    0.050053
C     0.419706   -0.001204    0.776566    0.122023    0.002916   -0.128935
H     0.194574    2.026408   -0.031731    0.057168    0.031566   -0.062912
H    -0.891311    1.649544    1.298702    0.266367   -0.121836    0.056558
C    -0.412531   -1.230178    0.405675    0.133755    0.035469   -0.085779
H     1.490338    0.002646   -0.024165    1.411748    0.049135   -0.945464
H     0.866601   -0.000997    1.771268    0.610986    0.004000   -0.325537
H     0.191330   -2.029750   -0.029517    0.067649   -0.028324   -0.061390
H    -0.894587   -1.649694    1.299644    0.267508    0.119008    0.049623
O     2.483287    0.003360   -0.637724   -0.483639   -0.004707    0.291921
H     3.140219    0.004766    0.075655    0.058495   -0.029351   -0.155584
15
* Frequency(6) -647.3450
C    -1.435640   -0.667326   -0.547481    0.015764    0.001794    0.009931
C    -1.434809    0.666735   -0.547646    0.012923   -0.001541    0.012567
H    -2.095317   -1.294059   -1.133059    0.019656   -0.029441    0.043348
C    -0.397741    1.225163    0.396308    0.127569   -0.033687   -0.083226
H    -2.095068    1.292371   -1.133219    0.007084    0.020949    0.050053
C     0.432071   -0.000908    0.763501    0.122023    0.002916   -0.128935
H     0.200367    2.029607   -0.038106    0.057168    0.031566   -0.062912
H    -0.864320    1.637199    1.304433    0.266367   -0.121836    0.056558
C    -0.398978   -1.226584    0.396983    0.133755    0.035469   -0.085779
H     1.633390    0.007625   -0.119968    1.411748    0.049135   -0.945464
H     0.928512   -0.000592    1.738281    0.610986    0.004000   -0.325537
H     0.198185   -2.032620   -0.035737    0.067649   -0.028324   -0.061390
H    -0.867480   -1.637635    1.304673    0.267508    0.119008    0.049623
O     2.434280    0.002883   -0.608144   -0.483639   -0.004707    0.291921
H     3.146146    0.001791    0.059890    0.058495   -0.029351   -0.155584
15
* Frequency(6) -647.3450
C    -1.434410   -0.667186   -0.546706    0.015764    0.001794    0.009931
C    -1.433800    0.666615   -0.546665    0.012923   -0.001541    0.012567
H    -2.093783   -1.296356   -1.129676    0.019656   -0.029441    0.043348
C    -0.387786    1.222534    0.389813    0.127569   -0.033687   -0.083226
H    -2.094515    1.294006   -1.129313    0.007084    0.020949    0.050053
C     0.441592   -0.000681    0.753440    0.122023    0.002916   -0.128935
H     0.204828    2.032070   -0.043015    0.057168    0.031566   -0.062912
H    -0.843535    1.627691    1.308847    0.266367   -0.121836    0.056558
C    -0.388541   -1.223816    0.390289    0.133755    0.035469   -0.085779
H     1.743554    0.011459   -0.193747    1.411748    0.049135   -0.945464
H     0.976189   -0.000280    1.712878    0.610986    0.004000   -0.325537
H     0.203464   -2.034830   -0.040528    0.067649   -0.028324   -0.061390
H    -0.846606   -1.628348    1.308545    0.267508    0.119008    0.049623
O     2.396539    0.002515   -0.585364   -0.483639   -0.004707    0.291921
H     3.150711   -0.000499    0.047749    0.058495   -0.029351   -0.155584
15
* Frequency(6) -647.3450
C    -1.433680   -0.667103   -0.546246    0.015764    0.001794    0.009931
C    -1.433202    0.666543   -0.546084    0.012923   -0.001541    0.012567
H    -2.092873   -1.297719   -1.127670    0.019656   -0.029441    0.043348
C    -0.381882    1.220975    0.385961    0.127569   -0.033687   -0.083226
H    -2.094187    1.294975   -1.126996    0.007084    0.020949    0.050053
C     0.447240   -0.000546    0.747473    0.122023    0.002916   -0.128935
H     0.207474    2.033531   -0.045927    0.057168    0.031566   -0.062912
H    -0.831207    1.622052    1.311464    0.266367   -0.121836    0.056558
C    -0.382350   -1.222174    0.386319    0.133755    0.035469   -0.085779
H     1.808892    0.013733   -0.237504    1.411748    0.049135   -0.945464
H     1.004467   -0.000095    1.697812    0.610986    0.004000   -0.325537
H     0.206595   -2.036141   -0.043369    0.067649   -0.028324   -0.061390
H    -0.834225   -1.622840    1.310841    0.267508    0.119008    0.049623
O     2.374156    0.002298   -0.571853   -0.483639   -0.004707    0.291921
H     3.153418   -0.001857    0.040549    0.058495   -0.029351   -0.155584
15
* Frequency(6) -647.3450
C    -1.433530   -0.667086   -0.546152    0.015764    0.001794    0.009931
C    -1.433079    0.666529   -0.545964    0.012923   -0.001541    0.012567
H    -2.092686   -1.297999   -1.127257    0.019656   -0.029441    0.043348
C    -0.380668    1.220655    0.385170    0.127569   -0.033687   -0.083226
H    -2.094120    1.295174   -1.126520    0.007084    0.020949    0.050053
C     0.448401   -0.000518    0.746246    0.122023    0.002916   -0.128935
H     0.208018    2.033831   -0.046526    0.057168    0.031566   -0.062912
H    -0.828672    1.620893    1.312003    0.266367   -0.121836    0.056558
C    -0.381078   -1.221837    0.385503    0.133755    0.035469   -0.085779
H     1.822324    0.014200   -0.246500    1.411748    0.049135   -0.945464
H     1.010280   -0.000057    1.694715    0.610986    0.004000   -0.325537
H     0.207238   -2.036410   -0.043953    0.067649   -0.028324   -0.061390
H    -0.831680   -1.621708    1.311314    0.267508    0.119008    0.049623
O     2.369554    0.002253   -0.569076   -0.483639   -0.004707    0.291921
H     3.153975   -0.002137    0.039068    0.058495   -0.029351   -0.155584
15
* Frequency(6) -647.3450
C    -1.433976   -0.667137   -0.546433    0.015764    0.001794    0.009931
C    -1.433445    0.666572   -0.546320    0.012923   -0.001541    0.012567
H    -2.093242   -1.297166   -1.128483    0.019656   -0.029441    0.043348
C    -0.384276    1.221608    0.387524    0.127569   -0.033687   -0.083226
H    -2.094320    1.294582   -1.127936    0.007084    0.020949    0.050053
C     0.444950   -0.000600    0.749893    0.122023    0.002916   -0.128935
H     0.206401    2.032938   -0.044746    0.057168    0.031566   -0.062912
H    -0.836206    1.624339    1.310403    0.266367   -0.121836    0.056558
C    -0.384861   -1.222840    0.387929    0.133755    0.035469   -0.085779
H     1.782394    0.012811   -0.219759    1.411748    0.049135   -0.945464
H     0.992999   -0.000170    1.703922    0.610986    0.004000   -0.325537
H     0.205325   -2.035609   -0.042217    0.067649   -0.028324   -0.061390
H    -0.839246   -1.625074    1.309910    0.267508    0.119008    0.049623
O     2.383233    0.002386   -0.577332   -0.483639   -0.004707    0.291921
H     3.152320   -0.001306    0.043469    0.058495   -0.029351   -0.155584
15
* Frequency(6) -647.3450
C    -1.434969   -0.667250   -0.547059    0.015764    0.001794    0.009931
C    -1.434259    0.666669   -0.547111    0.012923   -0.001541    0.012567
H    -2.094481   -1.295311   -1.131215    0.019656   -0.029441    0.043348
C    -0.392315    1.223730    0.392768    0.127569   -0.033687   -0.083226
H    -2.094767    1.293262   -1.131090    0.007084    0.020949    0.050053
C     0.437260   -0.000784    0.758018    0.122023    0.002916   -0.128935
H     0.202798    2.030949   -0.040782    0.057168    0.031566   -0.062912
H    -0.852992    1.632017    1.306839    0.266367   -0.121836    0.056558
C    -0.393290   -1.225075    0.393335    0.133755    0.035469   -0.085779
H     1.693430    0.009714   -0.160178    1.411748    0.049135   -0.945464
H     0.954496   -0.000422    1.724437    0.610986    0.004000   -0.325537
H     0.201062   -2.033824   -0.038348    0.067649   -0.028324   -0.061390
H    -0.856104   -1.632574    1.306783    0.267508    0.119008    0.049623
O     2.413711    0.002683   -0.595729   -0.483639   -0.004707    0.291921
H     3.148634    0.000543    0.053273    0.058495   -0.029351   -0.155584
15
* Frequency(6) -647.3450
C    -1.436403   -0.667413   -0.547962    0.015764    0.001794    0.009931
C    -1.435434    0.666809   -0.548254    0.012923   -0.001541    0.012567
H    -2.096268   -1.292634   -1.135156    0.019656   -0.029441    0.043348
C    -0.403914    1.226793    0.400335    0.127569   -0.033687   -0.083226
H    -2.095411    1.291357   -1.135641    0.007084    0.020949    0.050053
C     0.426166   -0.001049    0.769741    0.122023    0.002916   -0.128935
H     0.197600    2.028079   -0.035062    0.057168    0.031566   -0.062912
H    -0.877211    1.643095    1.301696    0.266367   -0.121836    0.056558
C    -0.405451   -1.228300    0.401134    0.133755    0.035469   -0.085779
H     1.565071    0.005247   -0.074215    1.411748    0.049135   -0.945464
H     0.898944   -0.000786    1.754035    0.610986    0.004000   -0.325537
H     0.194911   -2.031249   -0.032766    0.067649   -0.028324   -0.061390
H    -0.880426   -1.643394    1.302271    0.267508    0.119008    0.049623
O     2.457684    0.003111   -0.622271   -0.483639   -0.004707    0.291921
H     3.143316    0.003212    0.067419    0.058495   -0.029351   -0.155584
15
* Frequency(6) -647.3450
C    -1.438120   -0.667608   -0.549044    0.015764    0.001794    0.009931
C    -1.436842    0.666977   -0.549624    0.012923   -0.001541    0.012567
H    -2.098410   -1.289426   -1.139880    0.019656   -0.029441    0.043348
C    -0.417816    1.230464    0.409405    0.127569   -0.033687   -0.083226
H    -2.096183    1.289074   -1.141095    0.007084    0.020949    0.050053
C     0.412868   -0.001367    0.783791    0.122023    0.002916   -0.128935
H     0.191371    2.024639   -0.028206    0.057168    0.031566   -0.062912
H    -0.906238    1.656372    1.295533    0.266367   -0.121836    0.056558
C    -0.420027   -1.232165    0.410482    0.133755    0.035469   -0.085779
H     1.411228   -0.000108    0.028816    1.411748    0.049135   -0.945464
H     0.832363   -0.001221    1.789510    0.610986    0.004000   -0.325537
H     0.187539   -2.028162   -0.026076    0.067649   -0.028324   -0.061390
H    -0.909577   -1.656363    1.296864    0.267508    0.119008    0.049623
O     2.510388    0.003623   -0.654082   -0.483639   -0.004707    0.291921
H     3.136941    0.006410    0.084374    0.058495   -0.029351   -0.155584
15
* Frequency(6) -647.3450
C    -1.439937   -0.667815   -0.550188    0.015764    0.001794    0.009931
C    -1.438331    0.667155   -0.551072    0.012923   -0.001541    0.012567
H    -2.100675   -1.286034   -1.144875    0.019656   -0.029441    0.043348
C    -0.432514    1.234346    0.418994    0.127569   -0.033687   -0.083226
H    -2.096999    1.286661   -1.146862    0.007084    0.020949    0.050053
C     0.398809   -0.001703    0.798647    0.122023    0.002916   -0.128935
H     0.184784    2.021002   -0.020958    0.057168    0.031566   -0.062912
H    -0.936928    1.670409    1.289017    0.266367   -0.121836    0.056558
C    -0.435437   -1.236252    0.420365    0.133755    0.035469   -0.085779
H     1.248572   -0.005769    0.137749    1.411748    0.049135   -0.945464
H     0.761968   -0.001682    1.827017    0.610986    0.004000   -0.325537
H     0.179745   -2.024899   -0.019003    0.067649   -0.028324   -0.061390
H    -0.940399   -1.670074    1.291146    0.267508    0.119008    0.049623
O     2.566111    0.004166   -0.687716   -0.483639   -0.004707    0.291921
H     3.130202    0.009792    0.102299    0.058495   -0.029351   -0.155584
15
* Frequency(6) -647.3450
C    -1.441654   -0.668010   -0.551270    0.015764    0.001794    0.009931
C    -1.439739    0.667323   -0.552441    0.012923   -0.001541    0.012567
H    -2.102817   -1.282825   -1.149598    0.019656   -0.029441    0.043348
C    -0.446416    1.238017    0.428063    0.127569   -0.033687   -0.083226
H    -2.097771    1.284378   -1.152317    0.007084    0.020949    0.050053
C     0.385512   -0.002021    0.812697    0.122023    0.002916   -0.128935
H     0.178554    2.017562   -0.014102    0.057168    0.031566   -0.062912
H    -0.965954    1.683686    1.282853    0.266367   -0.121836    0.056558
C    -0.450013   -1.240117    0.429713    0.133755    0.035469   -0.085779
H     1.094729   -0.011123    0.240779    1.411748    0.049135   -0.945464
H     0.695386   -0.002118    1.862492    0.610986    0.004000   -0.325537
H     0.172373   -2.021813   -0.012314    0.067649   -0.028324   -0.061390
H    -0.969550   -1.683043    1.285739    0.267508    0.119008    0.049623
O     2.618815    0.004679   -0.719528   -0.483639   -0.004707    0.291921
H     3.123827    0.012991    0.119254    0.058495   -0.029351   -0.155584
15
* Frequency(6) -647.3450
C    -1.443088   -0.668174   -0.552173    0.015764    0.001794    0.009931
C    -1.440914    0.667463   -0.553584    0.012923   -0.001541    0.012567
H    -2.104604   -1.280149   -1.153540    0.019656   -0.029441    0.043348
C    -0.458014    1.241080    0.435630    0.127569   -0.033687   -0.083226
H    -2.098415    1.282473   -1.156867    0.007084    0.020949    0.050053
C     0.374418   -0.002286    0.824420    0.122023    0.002916   -0.128935
H     0.173356    2.014692   -0.008382    0.057168    0.031566   -0.062912
H    -0.990173    1.694764    1.277711    0.266367   -0.121836    0.056558
C    -0.462174   -1.243342    0.437512    0.133755    0.035469   -0.085779
H     0.966370   -0.015591    0.326743    1.411748    0.049135   -0.945464
H     0.639834   -0.002482    1.892091    0.610986    0.004000   -0.325537
H     0.166222   -2.019237   -0.006732    0.067649   -0.028324   -0.061390
H    -0.993872   -1.693864    1.281227    0.267508    0.119008    0.049623
O     2.662788    0.005107   -0.746070   -0.483639   -0.004707    0.291921
H     3.118509    0.015659    0.133400    0.058495   -0.029351   -0.155584
15
* Frequency(6) -647.3450
C    -1.444081   -0.668287   -0.552799    0.015764    0.001794    0.009931
C    -1.441729    0.667560   -0.554376    0.012923   -0.001541    0.012567
H    -2.105843   -1.278293   -1.156271    0.019656   -0.029441    0.043348
C    -0.466053    1.243202    0.440875    0.127569   -0.033687   -0.083226
H    -2.098862    1.281153   -1.160022    0.007084    0.020949    0.050053
C     0.366728   -0.002470    0.832545    0.122023    0.002916   -0.128935
H     0.169754    2.012703   -0.004417    0.057168    0.031566   -0.062912
H    -1.006959    1.702441    1.274147    0.266367   -0.121836    0.056558
C    -0.470603   -1.245577    0.442917    0.133755    0.035469   -0.085779
H     0.877405   -0.018687    0.386323    1.411748    0.049135   -0.945464
H     0.601332   -0.002734    1.912605    0.610986    0.004000   -0.325537
H     0.161959   -2.017452   -0.002863    0.067649   -0.028324   -0.061390
H    -1.010730   -1.701363    1.278100    0.267508    0.119008    0.049623
O     2.693266    0.005403   -0.764466   -0.483639   -0.004707    0.291921
H     3.114822    0.017509    0.143204    0.058495   -0.029351   -0.155584
15
* Frequency(6) -647.3450
C    -1.444527   -0.668337   -0.553080    0.015764    0.001794    0.009931
C    -1.442094    0.667604   -0.554731    0.012923   -0.001541    0.012567
H    -2.106399   -1.277461   -1.157497    0.019656   -0.029441    0.043348
C    -0.469662    1.244155    0.443229    0.127569   -0.033687   -0.083226
H    -2.099062    1.280560   -1.161437    0.007084    0.020949    0.050053
C     0.363277   -0.002552    0.836192    0.122023    0.002916   -0.128935
H     0.168137    2.011810   -0.002638    0.057168    0.031566   -0.062912
H    -1.014493    1.705887    1.272547    0.266367   -0.121836    0.056558
C    -0.474386   -1.246581    0.445344    0.133755    0.035469   -0.085779
H     0.837476   -0.020077    0.413065    1.411748    0.049135   -0.945464
H     0.584050   -0.002847    1.921812    0.610986    0.004000   -0.325537
H     0.160046   -2.016651   -0.001127    0.067649   -0.028324   -0.061390
H    -1.018296   -1.704729    1.276696    0.267508    0.119008    0.049623
O     2.706945    0.005536   -0.772723   -0.483639   -0.004707    0.291921
H     3.113168    0.018339    0.147605    0.058495   -0.029351   -0.155584
15
* Frequency(6) -647.3450
C    -1.444377   -0.668320   -0.552985    0.015764    0.001794    0.009931
C    -1.441971    0.667589   -0.554612    0.012923   -0.001541    0.012567
H    -2.106212   -1.277741   -1.157085    0.019656   -0.029441    0.043348
C    -0.468448    1.243835    0.442437    0.127569   -0.033687   -0.083226
H    -2.098995    1.280760   -1.160961    0.007084    0.020949    0.050053
C     0.364438   -0.002525    0.834965    0.122023    0.002916   -0.128935
H     0.168681    2.012111   -0.003237    0.057168    0.031566   -0.062912
H    -1.011958    1.704728    1.273085    0.266367   -0.121836    0.056558
C    -0.473114   -1.246243    0.444527    0.133755    0.035469   -0.085779
H     0.850908   -0.019609    0.404069    1.411748    0.049135   -0.945464
H     0.589864   -0.002809    1.918715    0.610986    0.004000   -0.325537
H     0.160689   -2.016921   -0.001711    0.067649   -0.028324   -0.061390
H    -1.015751   -1.703597    1.277168    0.267508    0.119008    0.049623
O     2.702343    0.005491   -0.769945   -0.483639   -0.004707    0.291921
H     3.113725    0.018060    0.146125    0.058495   -0.029351   -0.155584
15
* Frequency(6) -647.3450
C    -1.443647   -0.668237   -0.552526    0.015764    0.001794    0.009931
C    -1.441373    0.667518   -0.554030    0.012923   -0.001541    0.012567
H    -2.105302   -1.279103   -1.155079    0.019656   -0.029441    0.043348
C    -0.462544    1.242276    0.438585    0.127569   -0.033687   -0.083226
H    -2.098667    1.281729   -1.158645    0.007084    0.020949    0.050053
C     0.370085   -0.002390    0.828998    0.122023    0.002916   -0.128935
H     0.171326    2.013572   -0.006148    0.057168    0.031566   -0.062912
H    -0.999630    1.699089    1.275703    0.266367   -0.121836    0.056558
C    -0.466923   -1.244602    0.440557    0.133755    0.035469   -0.085779
H     0.916246   -0.017335    0.360311    1.411748    0.049135   -0.945464
H     0.618141   -0.002624    1.903649    0.610986    0.004000   -0.325537
H     0.163820   -2.018232   -0.004552    0.067649   -0.028324   -0.061390
H    -1.003370   -1.698089    1.279465    0.267508    0.119008    0.049623
O     2.679960    0.005274   -0.756435   -0.483639   -0.004707    0.291921
H     3.116432    0.016701    0.138924    0.058495   -0.029351   -0.155584
15
* Frequency(6) -647.3450
C    -1.442417   -0.668097   -0.551751    0.015764    0.001794    0.009931
C    -1.440365    0.667398   -0.553049    0.012923   -0.001541    0.012567
H    -2.103768   -1.281401   -1.151696    0.019656   -0.029441    0.043348
C    -0.452589    1.239647    0.432090    0.127569   -0.033687   -0.083226
H    -2.098114    1.283364   -1.154739    0.007084    0.020949    0.050053
C     0.379607   -0.002162    0.818937    0.122023    0.002916   -0.128935
H     0.175787    2.016035   -0.011057    0.057168    0.031566   -0.062912
H    -0.978845    1.689582    1.280116    0.266367   -0.121836    0.056558
C    -0.456486   -1.241834    0.433864    0.133755    0.035469   -0.085779
H     1.026410   -0.013501    0.286533    1.411748    0.049135   -0.945464
H     0.665819   -0.002312    1.878246    0.610986    0.004000   -0.325537
H     0.169099   -2.020442   -0.009343    0.067649   -0.028324   -0.061390
H    -0.982495   -1.688802    1.283337    0.267508    0.119008    0.049623
O     2.642219    0.004906   -0.733655   -0.483639   -0.004707    0.291921
H     3.120996    0.014411    0.126783    0.058495   -0.029351   -0.155584
15
* Frequency(6) -647.3450
C    -1.440820   -0.667915   -0.550744    0.015764    0.001794    0.009931
C    -1.439055    0.667241   -0.551776    0.012923   -0.001541    0.012567
H    -2.101776   -1.284384   -1.147304    0.019656   -0.029441    0.043348
C    -0.439662    1.236233    0.423657    0.127569   -0.033687   -0.083226
H    -2.097396    1.285487   -1.149667    0.007084    0.020949    0.050053
C     0.391972   -0.001866    0.805872    0.122023    0.002916   -0.128935
H     0.181580    2.019233   -0.017432    0.057168    0.031566   -0.062912
H    -0.951854    1.677236    1.285847    0.266367   -0.121836    0.056558
C    -0.442933   -1.238240    0.425172    0.133755    0.035469   -0.085779
H     1.169462   -0.008522    0.190729    1.411748    0.049135   -0.945464
H     0.727730   -0.001906    1.845259    0.610986    0.004000   -0.325537
H     0.175954   -2.023312   -0.015563    0.067649   -0.028324   -0.061390
H    -0.955389   -1.676743    1.288365    0.267508    0.119008    0.049623
O     2.593213    0.004429   -0.704075   -0.483639   -0.004707    0.291921
H     3.126924    0.011437    0.111018    0.058495   -0.029351   -0.155584
15
* Frequency(6) -647.3450
C    -1.439029   -0.667712   -0.549616    0.015764    0.001794    0.009931
C    -1.437587    0.667066   -0.550348    0.012923   -0.001541    0.012567
H    -2.099542   -1.287730   -1.142377    0.019656   -0.029441    0.043348
C    -0.425165    1.232405    0.414199    0.127569   -0.033687   -0.083226
H    -2.096591    1.287867   -1.143979    0.007084    0.020949    0.050053
C     0.405839   -0.001535    0.791219    0.122023    0.002916   -0.128935
H     0.188077    2.022821   -0.024582    0.057168    0.031566   -0.062912
H    -0.921583    1.663390    1.292275    0.266367   -0.121836    0.056558
C    -0.427732   -1.234209    0.415423    0.133755    0.035469   -0.085779
H     1.329900   -0.002938    0.083282    1.411748    0.049135   -0.945464
H     0.797165   -0.001452    1.808264    0.610986    0.004000   -0.325537
H     0.183642   -2.026531   -0.022540    0.067649   -0.028324   -0.061390
H    -0.924988   -1.663219    1.294005    0.267508    0.119008    0.049623
O     2.538250    0.003895   -0.670899   -0.483639   -0.004707    0.291921
H     3.133571    0.008101    0.093337    0.058495   -0.029351   -0.155584
