
                                 *****************
                                 * O   R   C   A *
                                 *****************

                                            #,                                       
                                            ###                                      
                                            ####                                     
                                            #####                                    
                                            ######                                   
                                           ########,                                 
                                     ,,################,,,,,                         
                               ,,#################################,,                 
                          ,,##########################################,,             
                       ,#########################################, ''#####,          
                    ,#############################################,,   '####,        
                  ,##################################################,,,,####,       
                ,###########''''           ''''###############################       
              ,#####''   ,,,,##########,,,,          '''####'''          '####       
            ,##' ,,,,###########################,,,                        '##       
           ' ,,###''''                  '''############,,,                           
         ,,##''                                '''############,,,,        ,,,,,,###''
      ,#''                                            '''#######################'''  
     '                                                          ''''####''''         
             ,#######,   #######,   ,#######,      ##                                
            ,#'     '#,  ##    ##  ,#'     '#,    #''#        ,####,    ,#,          
            ##       ##  ##   ,#'  ##            #'  '#       #'       ,# #          
            ##       ##  #######   ##           ,######,      #####,      #          
            '#,     ,#'  ##    ##  '#,     ,#' ,#      #,     #,   #      #          
             '#######'   ##     ##  '#######'  #'      '#     '####' #    #          



                #########################################################
                #                        -***-                          #
                #          Department of theory and spectroscopy        #
                #                                                       #
                #                      Frank Neese                      #
                #                                                       #
                #     Directorship, Architecture, Infrastructure        #
                #                    SHARK, DRIVERS                     #
                #        Core code/Algorithms in most modules           #
                #                                                       #
                #        Max Planck Institute fuer Kohlenforschung      #
                #                Kaiser Wilhelm Platz 1                 #
                #                 D-45470 Muelheim/Ruhr                 #
                #                      Germany                          #
                #                                                       #
                #                  All rights reserved                  #
                #                        -***-                          #
                #########################################################


                         Program Version 6.1.1  -  RELEASE   -
                                (GIT: $487d211c$)
                          ($2025-11-21 10:33:24 +0100$)


 With contributions from (in alphabetic order):
[Max-Planck-Institut fuer Kohlenforschung]                               
  Daniel Aravena         : Magnetic Suceptibility                        
  Michael Atanasov       : Ab Initio Ligand Field Theory (pilot matlab implementation)
  Alexander A. Auer      : GIAO ZORA, VPT2 properties, NMR spectrum      
  Ute Becker             : All parallelization in ORCA, NUMFREQ, NUMCALC 
  Giovanni Bistoni       : ED, misc. LED, open-shell LED, HFLD           
  Dmytro Bykov           : pre 5.0 version of the SCF Hessian            
  Marcos Casanova-Páez   : Triplet and SCS-CIS(D). UHF-(DLPNO)-IP/EA/STEOM-CCSD. UHF-CVS-IP/STEOM-CCSD   
  Vijay G. Chilkuri      : MRCI spin determinant printing, contributions to CSF-ICE 
  Pauline Colinet        : FMM embedding                                 
  Dipayan Datta          : RHF DLPNO-CCSD density                        
  Achintya Kumar Dutta   : EOM-CC, STEOM-CC                              
  Nicolas Foglia         : Exact transition moments, OPA infrastructure, MCD improvements    
  Dmitry Ganyushin       : Spin-Orbit,Spin-Spin,Magnetic field MRCI      
  Miquel Garcia-Rates    : C-PCM and meta-GGA Hessian, CCSD/C-PCM, Gaussian charge scheme 
  Tiago L. C. Gouveia    : GS-ROHF, GS-ROCIS                             
  Yang Guo               : DLPNO-NEVPT2, F12-NEVPT2, CIM, IAO-localization        
  Andreas Hansen         : Spin unrestricted coupled pair/coupled cluster methods 
  Ingolf Harden          : AUTO-CI MPn and infrastructure                
  Benjamin Helmich-Paris : MC-RPA, TRAH-(SCF,CASSCF), AVAS, COSX integrals, SCF dyn. polar., MC-PDFT, srDFT 
  Lee Huntington         : MR-EOM, pCC                                   
  Robert Izsak           : Overlap fitted RIJCOSX, COSX-SCS-MP3, EOM     
  Riya Kayal             : Wick's Theorem for AUTO-CI, AUTO-CI UHF-CCSDT 
  Emily Kempfer          : AUTO-CI RHF CISDT and CCSDT, approximate NEVPT4
  Christian Kollmar      : KDIIS, OOCD, Brueckner-CCSD(T), CCSD density, CASPT2, CASPT2-K, improved NEVPT2 
  Axel Koslowski         : Symmetry handling                             
  Simone Kossmann        : meta-GGA functionals, TD-DFT gradient, OOMP2, (MP2 Hessian; deprecated post 5.0) 
  Lucas Lang             : DCDCAS, Hyperfine gauge corrections, ICE-SOC+SSC
  Marvin Lechner         : AUTO-CI (C++ implementation), FIC-MRCC        
  Spencer Leger          : CASSCF response                               
  Dagmar Lenk            : GEPOL surface, SMD, ORCA-2-JSON               
  Dimitrios Liakos       : Extrapolation schemes; Compound Job, Property file
  Dimitrios Manganas     : Further ROCIS development; embedding schemes. LFT, Crystal Embedding 
  Dimitrios Pantazis     : SARC Basis sets                               
  Anastasios Papadopoulos: AUTO-CI, single reference methods and gradients 
  Taras Petrenko         : pre 6.0 DFT Hessian and TD-DFT gradient,  ECA, NRVS 
  Petra Pikulova         : Analytic Raman intensities                    
  Peter Pinski           : DLPNO-MP2, DLPNO-MP2 Gradient                 
  Shashank Vittal Rao    : ES-AILFT, MagRelax                            
  Christoph Reimann      : Effective Core Potentials                     
  Marius Retegan         : Local ZFS, SOC                                
  Christoph Riplinger    : Optimizer, TS searches, QM/MM, DLPNO-CCSD(T), (RO)-DLPNO pert. Triples 
  Michael Roemelt        : Original ROCIS implementation, recursive CI coupling coefficients
  Masaaki Saitow         : Open-shell DLPNO-CCSD energy and density      
  Barbara Sandhoefer     : DKH picture change effects                    
  Yorick L. A. Schmerwitz: GMF and freeze-and-release deltaSCF, NEB S-IDPP initial path                    
  Kantharuban Sivalingam : CASSCF convergence/infrastructure, NEVPT2, NEVPT3, NEVPT4(SD), FIC-MRCI and CEPA variants
  Bernardo de Souza      : ESD, SOC TD-DFT                               
  Georgi L. Stoychev     : AutoAux, RI-MP2 NMR, DLPNO-MP2 response, X2C  
  Van Anh Tran           : RI-MP2 g-tensors                              
  Willem Van den Heuvel  : Paramagnetic NMR                              
  Zikuan Wang            : NOTCH, Electric field optimization            
  Frank Wennmohs         : Technical directorship and infrastructure     
  Hang Xu                : AUTO-CI-Response properties                   
                                                                         
[FACCTs GmbH]                                                            
  Markus Bursch, Nicolas Foglia, Miquel Garcia-Rates, Ingolf Harden, Hagen Neugebauer, Anastasios Papadopoulos, 
  Christoph Riplinger, Bernardo de Souza, Georgi L. Stoychev                                                    
                                                                 
  APM, various basis sets, CI-OPT, improved COSX, DLPNO-Multilevel,           
  DOCKER, DRACO, updates on ESD, Fragmentator, GOAT, IRC, LR-CPCM, L-BFGS, MBIS, meta-GGA TD-DFT gradient, ML-optimized integration grids, 
  MM, NACMEs, nearIR, NEB, NEB-TS, NL-DFT gradient (VV10), 2- and 3-layer-ONIOM, interface openCOSMO-RS, QMMM,   
  Crystal-QMMM, RESP, rigid body optimization, SF, symmetry and pop. for TD-DFT, various functionals, SOLVATOR                                   
                                                                         
[Other institutions]                                                     
  V. Asgeirsson          : NEB                                           
  Christoph Bannwarth    : sTDA-DFT, sTD-DFT, PBEh-3c, B97-3c, D3        
  Giovanni Bistoni       : ETS/NOCV, ADLD/ADEX, COVALED                  
  Martin Brehm           : Molecular dynamics                            
  Ronald Cardenas        : ETS/NOCV                                      
  Martina Colucci        : COVALED                                       
  Sebastian Ehlert       : rSCAN, r2SCAN, r2SCAN-3c, D4, dhf basis sets  
  Marvin Friede          : D4 for Fr, Ra, Ac-Lr                          
  Lars Goerigk           : TD-DFT with DH, B97 family of functionals     
  Stefan Grimme          : VdW corrections, initial TS optimization, DFT functionals, gCP, sTDA/sTD-DF 
  Waldemar Hujo          : DFT-NL                                        
  H. Jonsson             : NEB                                           
  Holger Kruse           : gCP                                           
  Marcel Mueller         : wB97X-3c, vDZP basis set                      
  Hagen Neugebauer       : wr2SCAN, Native XTB                           
  Gianluca Regni         : ADLD/ADEX                                     
  Tobias Risthaus        : pre 6.0 range-separated hybrid DFT and stability analysis
  Lukas Wittmann         : regularized MP2, r2SCAN double-hybrids, wr2SCAN        
                                                                         
We gratefully acknowledge several colleagues who have allowed us to      
interface, adapt or use parts of their codes:                            
  Ed Valeev, F. Pavosevic, A. Kumar             : LibInt (2-el integral package), F12 methods 
  Garnet Chan, S. Sharma, J. Yang, R. Olivares  : DMRG                   
  Ulf Ekstrom                                   : XCFun DFT Library      
  Mihaly Kallay                                 : mrcc  (arbitrary order and MRCC methods)
  Frank Weinhold                                : gennbo (NPA and NBO analysis)           
  Simon Mueller                                 : openCOSMO-RS                            
  Christopher J. Cramer and Donald G. Truhlar   : smd solvation model                     
  S Lehtola, MJT Oliveira, MAL Marques          : LibXC Library                           
  Liviu Ungur et al                             : ANISO software                          


 Your calculation uses the libint2 library for the computation of 2-el integrals
 For citations please refer to: http://libint.valeyev.net

 Your ORCA version has been built with support for libXC version: 7.0.0
 For citations please refer to: https://libxc.gitlab.io

 This ORCA versions uses:
   CBLAS   interface :  Fast vector & matrix operations
   LAPACKE interface :  Fast linear algebra routines
   SCALAPACK package :  Parallel linear algebra routines
   Shared memory     :  Shared parallel matrices
   BLAS/LAPACK       :  OpenBLAS 0.3.29  USE64BITINT DYNAMIC_ARCH NO_AFFINITY Zen SINGLE_THREADED
        Core in use  :  Zen
   Copyright (c) 2011-2014, The OpenBLAS Project


  ***********************************
  * Starting time: Mon Mar  9 21:35:14 2026
  * Host name:     a2-13
  * Process ID:    3206003
  * Working dir.:  /home/avcopan/proj/project-cyclopentane/code/oh-addition/calc/cyC5e1/RH+OH-c3_R-alkyl+H2O_saddle
  ***********************************

NOTE: MaxCore=7500 MB was set to SCF,MP2,MDCI,CIPSI,MRCI,RASCI and CIS
      => If you want to overwrite this, your respective input block should be placed after the MaxCore statement


***************************************
The coordinates will be read from file: guess.xyz
***************************************


Your calculation utilizes the atom-pairwise dispersion correction
based on EEQ partial charges (D4)


Warning: RI is on but no J-basis has been assigned. Assigning Def2/J (nothing to worry about!)
================================================================================

----- Orbital basis set information -----
Your calculation utilizes the basis: def2-TZVPP
   F. Weigend and R. Ahlrichs, Phys. Chem. Chem. Phys. 7, 3297 (2005).

----- AuxJ basis set information -----
Your calculation utilizes the auxiliary basis: def2/J
   H-Rn: F. Weigend, Phys. Chem. Chem. Phys. 8, 1057 (2006).
   Fr-Lr: K. Eichkorn, F. Weigend, O. Treutler, R. Ahlrichs; Theor. Chem. Acc. 97, 119 (1997).

----- AuxC basis set information -----
Your calculation utilizes the auxiliary basis: def2-TZVPP/C
  H-La, Hf-Rn : A. Hellweg, C. Hattig, S. Hofener and W. Klopper, Theor. Chem. Acc. 117, 587 (2007).
        Ce-Lu : J. Chmela and M. E. Harding, Mol. Phys. (2018).

================================================================================
                                        WARNINGS
                       Please study these warnings very carefully!
================================================================================


WARNING: your system is open-shell and RHF/RKS was chosen
  ===> : WILL SWITCH to UHF/UKS


WARNING: The frozen-core approximation for MP2-gradient calculations is turned on by default.

WARNING: The environment variable RSH_COMMAND is not set!
  ===> : All Displacements for the Numerical Hessian or Gradient calculation
         will be started on localhost

WARNING: Geometry Optimization
  ===> : Switching off AutoStart
         For restart on a previous wavefunction, please use MOREAD

WARNING: The frozen-core approximation is turned on by default for 
         the MP2 part of double-hybrid DFT.

================================================================================
                                       INPUT FILE
================================================================================
NAME = opt.inp
|  1> % MaxCore 7500
|  2> ! PAL8
|  3> ! REVDSD-PBEP86-D4/2021 def2-TZVPP def2-TZVPP/c
|  4> ! OptTS
|  5> ! NumFreq
|  6> %geom 
|  7>    Calc_Hess true
|  8>    NumHess   true
|  9> end
| 10> * xyzfile 0 2 guess.xyz
| 11> 
| 12>                          ****END OF INPUT****
================================================================================

                       *****************************
                       * Geometry Optimization Run *
                       *****************************

Geometry optimization settings:
Update method            Update   .... Bofill
Choice of coordinates    CoordSys .... (2022) Redundant Internals
Initial Hessian          InHess   .... Almloef's Model
Max. no of cycles        MaxIter  .... 50

Convergence Tolerances:
Energy Change            TolE     ....  5.0000e-06 Eh
Max. Gradient            TolMAXG  ....  3.0000e-04 Eh/bohr
RMS Gradient             TolRMSG  ....  1.0000e-04 Eh/bohr
Max. Displacement        TolMAXD  ....  4.0000e-03 bohr
RMS Displacement         TolRMSD  ....  2.0000e-03 bohr
Strict Convergence                .... False

------------------------------------------------------------------------------
                        ORCA OPTIMIZATION COORDINATE SETUP
------------------------------------------------------------------------------

The optimization will be done in redundant internal coordinates (2022)
Making redundant internal coordinates   ...  (2022 redundants) done
Following TS mode number                ...     0
Evaluating the initial hessian          ...  (Is done on the fly) done
Evaluating the coordinates              ...  done
Calculating the B-matrix                .... done
Calculating the G-matrix                .... done
The number of degrees of freedom        ....   78

    -----------------------------------------------------------------
                    Redundant Internal Coordinates


    -----------------------------------------------------------------
         Definition                    Initial Value    d2E/dq (diagonal element)
    -----------------------------------------------------------------
      1. B(C   1,C   0)                  1.3349         0.000000   
      2. B(H   2,C   0)                  1.0829         0.000000   
      3. B(C   3,C   1)                  1.5085         0.000000   
      4. B(H   4,C   1)                  1.0829         0.000000   
      5. B(C   5,C   3)                  1.5351         0.000000   
      6. B(H   6,C   3)                  1.0926         0.000000   
      7. B(H   7,C   3)                  1.0971         0.000000   
      8. B(C   8,C   5)                  1.5351         0.000000   
      9. B(C   8,C   0)                  1.5085         0.000000   
     10. B(H   9,C   5)                  1.1633         0.000000   
     11. B(H  10,C   5)                  1.0900         0.000000   
     12. B(H  11,C   8)                  1.0926         0.000000   
     13. B(H  12,C   8)                  1.0971         0.000000   
     14. B(O  13,H   9)                  1.4279         0.000000   
     15. B(H  14,O  13)                  0.9688         0.000000   
     16. B(H  14,H   9)                  1.8058         0.000000   
     17. A(H   2,C   0,C   8)          122.9760         0.000000   
     18. A(C   1,C   0,H   2)          124.9639         0.000000   
     19. A(C   1,C   0,C   8)          112.0365         0.000000   
     20. A(C   0,C   1,H   4)          124.9639         0.000000   
     21. A(C   3,C   1,H   4)          122.9763         0.000000   
     22. A(C   0,C   1,C   3)          112.0367         0.000000   
     23. A(C   1,C   3,H   6)          113.0372         0.000000   
     24. A(C   5,C   3,H   6)          112.1266         0.000000   
     25. A(C   1,C   3,C   5)          102.6622         0.000000   
     26. A(H   6,C   3,H   7)          106.9403         0.000000   
     27. A(C   5,C   3,H   7)          111.3551         0.000000   
     28. A(C   1,C   3,H   7)          110.7994         0.000000   
     29. A(C   3,C   5,H   9)          106.3807         0.000000   
     30. A(C   3,C   5,C   8)          106.9280         0.000000   
     31. A(C   8,C   5,H  10)          115.0386         0.000000   
     32. A(C   3,C   5,H  10)          115.0387         0.000000   
     33. A(C   8,C   5,H   9)          106.3830         0.000000   
     34. A(H   9,C   5,H  10)          106.4122         0.000000   
     35. A(C   0,C   8,C   5)          102.6620         0.000000   
     36. A(H  11,C   8,H  12)          106.9404         0.000000   
     37. A(C   5,C   8,H  12)          111.3551         0.000000   
     38. A(C   0,C   8,H  12)          110.7998         0.000000   
     39. A(C   5,C   8,H  11)          112.1269         0.000000   
     40. A(C   0,C   8,H  11)          113.0366         0.000000   
     41. A(O  13,H   9,H  14)           32.2534         0.000000   
     42. A(C   5,H   9,H  14)          141.5558         0.000000   
     43. A(C   5,H   9,O  13)          173.8092         0.000000   
     44. A(H   9,O  13,H  14)           95.8820         0.000000   
     45. A(H   9,H  14,O  13)           51.8645         0.000000   
     46. D(H   4,C   1,C   0,H   2)     -0.0190         0.000000   
     47. D(H   4,C   1,C   0,C   8)   -178.2910         0.000000   
     48. D(C   3,C   1,C   0,H   2)    178.2749         0.000000   
     49. D(C   3,C   1,C   0,C   8)      0.0028         0.000000   
     50. D(C   5,C   3,C   1,H   4)   -170.0055         0.000000   
     51. D(H   6,C   3,C   1,C   0)    132.6610         0.000000   
     52. D(H   7,C   3,C   1,C   0)   -107.3240         0.000000   
     53. D(H   6,C   3,C   1,H   4)    -49.0057         0.000000   
     54. D(C   5,C   3,C   1,C   0)     11.6612         0.000000   
     55. D(H   9,C   5,C   3,H   6)    -26.5922         0.000000   
     56. D(C   8,C   5,C   3,H   7)    100.2490         0.000000   
     57. D(C   8,C   5,C   3,H   6)   -139.9687         0.000000   
     58. D(C   8,C   5,C   3,C   1)    -18.3464         0.000000   
     59. D(H   9,C   5,C   3,H   7)   -146.3745         0.000000   
     60. D(H   9,C   5,C   3,C   1)     95.0302         0.000000   
     61. D(H  11,C   8,C   5,H  10)    -90.9465         0.000000   
     62. D(H  11,C   8,C   5,H   9)     26.5945         0.000000   
     63. D(H  11,C   8,C   5,C   3)    139.9695         0.000000   
     64. D(C   0,C   8,C   5,H   9)    -95.0272         0.000000   
     65. D(C   0,C   8,C   5,C   3)     18.3478         0.000000   
     66. D(H  12,C   8,C   0,C   1)    107.3196         0.000000   
     67. D(C   0,C   8,C   5,H  10)    147.4318         0.000000   
     68. D(H  11,C   8,C   0,H   2)     49.0227         0.000000   
     69. D(H  11,C   8,C   0,C   1)   -132.6653         0.000000   
     70. D(C   5,C   8,C   0,H   2)    170.0224         0.000000   
     71. D(C   5,C   8,C   0,C   1)    -11.6656         0.000000   
     72. D(H  14,H   9,C   5,C   3)    123.1706         0.000000   
     73. D(O  13,H   9,C   5,H  10)      0.2001         0.000000   
     74. D(O  13,H   9,C   5,C   8)   -122.9253         0.000000   
     75. D(H  14,H   9,C   5,C   8)   -123.0790         0.000000   
     76. D(O  13,H   9,C   5,C   3)    123.3244         0.000000   
     77. D(H  14,O  13,H   9,C   5)     -0.1791         0.000000   
     78. D(O  13,H  14,H   9,C   5)    179.9689         0.000000   
    -----------------------------------------------------------------

Number of atoms                         .... 15
Number of degrees of freedom            .... 78


         *************************************************************
         *                GEOMETRY OPTIMIZATION CYCLE   1            *
         *************************************************************
---------------------------------
CARTESIAN COORDINATES (ANGSTROEM)
---------------------------------
  C     -1.440959   -0.667693   -0.549040
  C     -1.441245    0.667185   -0.549181
  H     -2.102769   -1.288457   -1.140062
  C     -0.426905    1.233486    0.413065
  H     -2.103124    1.287541   -1.140553
  C      0.407292    0.000278    0.786985
  H      0.183878    2.025614   -0.026660
  H     -0.921963    1.662742    1.293041
  C     -0.426421   -1.233351    0.413379
  H      1.329223    0.000396    0.077494
  H      0.800895    0.000483    1.803406
  H      0.184669   -2.025360   -0.026133
  H     -0.921326   -1.662565    1.293461
  O      2.548136    0.000037   -0.666243
  H      3.134847   -0.000115    0.104704

----------------------------
CARTESIAN COORDINATES (A.U.)
----------------------------
  NO LB      ZA    FRAG     MASS         X           Y           Z
   0 C     6.0000    0    12.011   -2.723018   -1.261757   -1.037535
   1 C     6.0000    0    12.011   -2.723558    1.260797   -1.037802
   2 H     1.0000    0     1.008   -3.973658   -2.434831   -2.154405
   3 C     6.0000    0    12.011   -0.806734    2.330951    0.780580
   4 H     1.0000    0     1.008   -3.974328    2.433100   -2.155333
   5 C     6.0000    0    12.011    0.769670    0.000525    1.487186
   6 H     1.0000    0     1.008    0.347479    3.827856   -0.050380
   7 H     1.0000    0     1.008   -1.742258    3.142127    2.443493
   8 C     6.0000    0    12.011   -0.805819   -2.330696    0.781173
   9 H     1.0000    0     1.008    2.511867    0.000748    0.146442
  10 H     1.0000    0     1.008    1.513472    0.000913    3.407943
  11 H     1.0000    0     1.008    0.348974   -3.827376   -0.049384
  12 H     1.0000    0     1.008   -1.741054   -3.141793    2.444287
  13 O     8.0000    0    15.999    4.815279    0.000070   -1.259017
  14 H     1.0000    0     1.008    5.924002   -0.000217    0.197862

--------------------------------
INTERNAL COORDINATES (ANGSTROEM)
--------------------------------
 C      0   0   0     0.000000000000     0.00000000     0.00000000
 C      1   0   0     1.334878038085     0.00000000     0.00000000
 H      1   2   0     1.082888463453   124.96386616     0.00000000
 C      2   1   3     1.508475993418   112.03674947   178.27488343
 H      2   1   3     1.082887907293   124.96391877     0.00000000
 C      4   2   1     1.535090476966   102.66219239    11.66121563
 H      4   2   1     1.092648487437   113.03718559   132.66098886
 H      4   2   1     1.097133035450   110.79936094   252.67601797
 C      1   2   3     1.508478259031   112.03650928   181.72796067
 H      6   4   2     1.163328956816   106.38073739    95.03015058
 H      6   4   2     1.089970188985   115.03868439   212.56968846
 H      9   1   2     1.092648178658   113.03657678   227.33467375
 H      9   1   2     1.097132600712   110.79976964   107.31962829
 O     10   6   4     1.427898370200   173.80918870   123.32439140
 H     14  10   6     0.968808080805    95.88204916   359.82086011

---------------------------
INTERNAL COORDINATES (A.U.)
---------------------------
 C      0   0   0     0.000000000000     0.00000000     0.00000000
 C      1   0   0     2.522553914166     0.00000000     0.00000000
 H      1   2   0     2.046362629509   124.96386616     0.00000000
 C      2   1   3     2.850606507154   112.03674947   178.27488343
 H      2   1   3     2.046361578519   124.96391877     0.00000000
 C      4   2   1     2.900900592257   102.66219239    11.66121563
 H      4   2   1     2.064806401899   113.03718559   132.66098886
 H      4   2   1     2.073280969478   110.79936094   252.67601797
 C      1   2   3     2.850610788543   112.03650928   181.72796067
 H      6   4   2     2.198373132042   106.38073739    95.03015058
 H      6   4   2     2.059745151319   115.03868439   212.56968846
 H      9   1   2     2.064805818392   113.03657678   227.33467375
 H      9   1   2     2.073280147942   110.79976964   107.31962829
 O     10   6   4     2.698336866750   173.80918870   123.32439140
 H     14  10   6     1.830781949052    95.88204916   359.82086011

---------------------
BASIS SET INFORMATION
---------------------
There are 3 groups of distinct atoms

 Group   1 Type C   : 11s6p2d1f contracted to 5s3p2d1f pattern {62111/411/11/1}
 Group   2 Type H   : 5s2p1d contracted to 3s2p1d pattern {311/11/1}
 Group   3 Type O   : 11s6p2d1f contracted to 5s3p2d1f pattern {62111/411/11/1}

Atom   0C    basis set group =>   1
Atom   1C    basis set group =>   1
Atom   2H    basis set group =>   2
Atom   3C    basis set group =>   1
Atom   4H    basis set group =>   2
Atom   5C    basis set group =>   1
Atom   6H    basis set group =>   2
Atom   7H    basis set group =>   2
Atom   8C    basis set group =>   1
Atom   9H    basis set group =>   2
Atom  10H    basis set group =>   2
Atom  11H    basis set group =>   2
Atom  12H    basis set group =>   2
Atom  13O    basis set group =>   3
Atom  14H    basis set group =>   2
---------------------------------
AUXILIARY/J BASIS SET INFORMATION
---------------------------------
There are 3 groups of distinct atoms

 Group   1 Type C   : 12s5p4d2f1g contracted to 6s4p3d1f1g pattern {711111/2111/211/2/1}
 Group   2 Type H   : 5s2p1d contracted to 3s1p1d pattern {311/2/1}
 Group   3 Type O   : 12s5p4d2f1g contracted to 6s4p3d1f1g pattern {711111/2111/211/2/1}

Atom   0C    basis set group =>   1
Atom   1C    basis set group =>   1
Atom   2H    basis set group =>   2
Atom   3C    basis set group =>   1
Atom   4H    basis set group =>   2
Atom   5C    basis set group =>   1
Atom   6H    basis set group =>   2
Atom   7H    basis set group =>   2
Atom   8C    basis set group =>   1
Atom   9H    basis set group =>   2
Atom  10H    basis set group =>   2
Atom  11H    basis set group =>   2
Atom  12H    basis set group =>   2
Atom  13O    basis set group =>   3
Atom  14H    basis set group =>   2
---------------------------------
AUXILIARY/C BASIS SET INFORMATION
---------------------------------
There are 3 groups of distinct atoms

 Group   1 Type C   : 8s6p5d3f1g contracted to 8s6p4d3f1g pattern {11111111/111111/2111/111/1}
 Group   2 Type H   : 4s3p2d1f contracted to 4s3p2d1f pattern {1111/111/11/1}
 Group   3 Type O   : 8s6p5d3f1g contracted to 8s6p4d3f1g pattern {11111111/111111/2111/111/1}

Atom   0C    basis set group =>   1
Atom   1C    basis set group =>   1
Atom   2H    basis set group =>   2
Atom   3C    basis set group =>   1
Atom   4H    basis set group =>   2
Atom   5C    basis set group =>   1
Atom   6H    basis set group =>   2
Atom   7H    basis set group =>   2
Atom   8C    basis set group =>   1
Atom   9H    basis set group =>   2
Atom  10H    basis set group =>   2
Atom  11H    basis set group =>   2
Atom  12H    basis set group =>   2
Atom  13O    basis set group =>   3
Atom  14H    basis set group =>   2


           ************************************************************
           *        Program running with 8 parallel MPI-processes     *
           *              working on a common directory               *
           ************************************************************
------------------------------------------------------------------------------
                             ORCA STARTUP CALCULATIONS
                           -- RI-GTO INTEGRALS CHOSEN --
------------------------------------------------------------------------------
------------------------------------------------------------------------------
                   ___                                                        
                  /   \      - P O W E R E D   B Y -                         
                 /     \                                                     
                 |  |  |   _    _      __       _____    __    __             
                 |  |  |  | |  | |    /  \     |  _  \  |  |  /  |          
                  \  \/   | |  | |   /    \    | | | |  |  | /  /          
                 / \  \   | |__| |  /  /\  \   | |_| |  |  |/  /          
                |  |  |   |  __  | /  /__\  \  |    /   |      \           
                |  |  |   | |  | | |   __   |  |    \   |  |\   \          
                \     /   | |  | | |  |  |  |  | |\  \  |  | \   \       
                 \___/    |_|  |_| |__|  |__|  |_| \__\ |__|  \__/        
                                                                              
                      - O R C A' S   B I G   F R I E N D -                    
                                      &                                       
                       - I N T E G R A L  F E E D E R -                       
                                                                              
 v1 FN, 2020, v2 2021, v3 2022-2024                                           
------------------------------------------------------------------------------


----------------------
SHARK INTEGRAL PACKAGE
----------------------

Number of atoms                             ...     15
Number of basis functions                   ...    312
Number of shells                            ...    120
Maximum angular momentum                    ...      3
Integral batch strategy                     ... SHARK/LIBINT Hybrid
RI-J (if used) integral strategy            ... SPLIT-RIJ (Revised 2003 algorithm where possible)
Printlevel                                  ...      1
Contraction scheme used                     ... SEGMENTED contraction
Prescreening option                         ... SCHWARTZ
   Thresh                                   ... 2.500e-11
   Tcut                                     ... 2.500e-12
   Tpresel                                  ... 2.500e-12 
Coulomb Range Separation                    ... NOT USED
Exchange Range Separation                   ... NOT USED
Multipole approximations                    ... NOT USED
Finite Nucleus Model                        ... NOT USED
CABS basis                                  ... NOT available
Auxiliary Coulomb fitting basis             ... AVAILABLE
   # of basis functions in Aux-J            ...    393
   # of shells in Aux-J                     ...    135
   Maximum angular momentum in Aux-J        ...      4
Auxiliary J/K fitting basis                 ... NOT available
Auxiliary Correlation fitting basis         ... AVAILABLE
   # of basis functions in Aux-C            ...    726
   # of shells in Aux-C                     ...    222
   Maximum angular momentum in Aux-C        ...      4
Auxiliary 'external' fitting basis          ... NOT available

Checking pre-screening integrals            ... done (  0.0 sec) Dimension = 120
   => SHARK Basis and OBASIS are compatible. Storing Pre-screening
Shell pair information
Shell pair cut-off parameter TPreSel        ...   2.5e-12
Total number of shell pairs                 ...      7260
Shell pairs after pre-screening             ...      6749
Total number of primitive shell pairs       ...     18687
Primitive shell pairs kept                  ...     13915
          la=0 lb=0:   1507 shell pairs
          la=1 lb=0:   1916 shell pairs
          la=1 lb=1:    635 shell pairs
          la=2 lb=0:   1093 shell pairs
          la=2 lb=1:    708 shell pairs
          la=2 lb=2:    215 shell pairs
          la=3 lb=0:    324 shell pairs
          la=3 lb=1:    210 shell pairs
          la=3 lb=2:    120 shell pairs
          la=3 lb=3:     21 shell pairs

Checking whether 4 symmetric matrices of dimension 312 fit in memory
:Max Core in MB      =   7500.00
 MB in use           =     11.72
 MB left             =   7488.28
 MB needed           =      1.49
 Data fit in memory  = YES
Calculating RI/J V-Matrix + Cholesky decomp.... done (  0.1 sec)
Calculating RI/C V-Matrix + Cholesky decomp.... done (  0.1 sec)
Calculating Nuclear repulsion               ... done (  0.0 sec) ENN=    229.280819460050 Eh

Diagonalization of the overlap matrix:
Smallest eigenvalue                        ... 8.459e-05
Time for diagonalization                   ...    0.012 sec
Threshold for overlap eigenvalues          ... 1.000e-07
Number of eigenvalues below threshold      ... 0
Time for construction of square roots      ...    0.079 sec
Total time needed                          ...    0.120 sec

-------------------
DFT GRID GENERATION
-------------------

General Integration Accuracy     IntAcc      ... 4.388
Radial Grid Type                 RadialGrid  ... OptM3 with GC (2021)
Angular Grid (max. ang.)         AngularGrid ... 4 (Lebedev-302)
Angular grid pruning method      GridPruning ... 4 (adaptive)
Weight generation scheme         WeightScheme... mBecke (2022)
Basis function cutoff            BFCut       ... 1.0000e-11
Integration weight cutoff        WCut        ... 1.0000e-14
Partially contracted basis set               ... off
Rotationally invariant grid construction     ... off
Angular grids for H and He will be reduced by one unit

Total number of grid points                  ...    65159
Total number of batches                      ...     1025
Average number of points per batch           ...       63
Average number of grid points per atom       ...     4344

--------------------
COSX GRID GENERATION
--------------------

GRIDX 1
-------
General Integration Accuracy     IntAcc      ... 3.816
Radial Grid Type                 RadialGrid  ... OptM3 with GC (2021)
Angular Grid (max. ang.)         AngularGrid ... 1 (Lebedev-50)
Angular grid pruning method      GridPruning ... 4 (adaptive)
Weight generation scheme         WeightScheme... mBecke (2022)
Basis function cutoff            BFCut       ... 1.0000e-11
Integration weight cutoff        WCut        ... 1.0000e-14
Partially contracted basis set               ... on
Rotationally invariant grid construction     ... off
Angular grids for H and He will be reduced by one unit

Total number of grid points                  ...     8340
Total number of batches                      ...       75
Average number of points per batch           ...      111
Average number of grid points per atom       ...      556
UseSFitting                                  ... on

GRIDX 2
-------
General Integration Accuracy     IntAcc      ... 4.020
Radial Grid Type                 RadialGrid  ... OptM3 with GC (2021)
Angular Grid (max. ang.)         AngularGrid ... 2 (Lebedev-110)
Angular grid pruning method      GridPruning ... 4 (adaptive)
Weight generation scheme         WeightScheme... mBecke (2022)
Basis function cutoff            BFCut       ... 1.0000e-11
Integration weight cutoff        WCut        ... 1.0000e-14
Partially contracted basis set               ... on
Rotationally invariant grid construction     ... off
Angular grids for H and He will be reduced by one unit

Total number of grid points                  ...    17696
Total number of batches                      ...      147
Average number of points per batch           ...      120
Average number of grid points per atom       ...     1180
UseSFitting                                  ... on

GRIDX 3
-------
General Integration Accuracy     IntAcc      ... 4.338
Radial Grid Type                 RadialGrid  ... OptM3 with GC (2021)
Angular Grid (max. ang.)         AngularGrid ... 3 (Lebedev-194)
Angular grid pruning method      GridPruning ... 4 (adaptive)
Weight generation scheme         WeightScheme... mBecke (2022)
Basis function cutoff            BFCut       ... 1.0000e-11
Integration weight cutoff        WCut        ... 1.0000e-14
Partially contracted basis set               ... on
Rotationally invariant grid construction     ... off
Angular grids for H and He will be reduced by one unit

Total number of grid points                  ...    38750
Total number of batches                      ...      312
Average number of points per batch           ...      124
Average number of grid points per atom       ...     2583
UseSFitting                                  ... on
Grids setup in   2.5 sec
Initializing property integral containers    ... done (  0.1 sec)

SHARK setup successfully completed in   3.5 seconds

Maximum memory used throughout the entire STARTUP-calculation: 24.6 MB


           ************************************************************
           *        Program running with 8 parallel MPI-processes     *
           *              working on a common directory               *
           ************************************************************
-------------------------------------------------------------------------------
                                 ORCA GUESS
                   Start orbitals & Density for SCF / CASSCF
-------------------------------------------------------------------------------

------------
SCF SETTINGS
------------
Hamiltonian:
 Density Functional     Method          .... DFT(GTOs)
 Exchange Functional    Exchange        .... PBE
   PBE kappa parameter   XKappa         ....  0.804000
   PBE mue parameter    XMuePBE         ....  0.219520
 Correlation Functional Correlation     .... P86
 LDA part of GGA corr.  LDAOpt          .... VWN-5
 Gradients option       PostSCFGGA      .... off
 Hybrid DFT is turned on
   Fraction HF Exchange ScalHFX         ....  0.690000
   Scaling of DF-GGA-X  ScalDFX         ....  0.310000
   Scaling of DF-GGA-C  ScalDFC         ....  0.422400
   Scaling of DF-LDA-C  ScalLDAC        ....  0.422400
   Perturbative correction              ....  1.000000
 RI-approximation to the Coulomb term is turned on
   Number of AuxJ basis functions       .... 393
   RIJ-COSX (HFX calculated with COS-X)).... on


General Settings:
 Integral files         IntName         .... opt
 Hartree-Fock type      HFTyp           .... UHF
 Total Charge           Charge          ....    0
 Multiplicity           Mult            ....    2
 Number of Electrons    NEL             ....   47
 Basis Dimension        Dim             ....  312
 Nuclear Repulsion      ENuc            ....    229.2808194601 Eh

Convergence Acceleration:
 AO-DIIS                CNVDIIS         .... on
   Start iteration      DIISMaxIt       ....    12
   Startup error        DIISStart       ....  0.200000
   # of expansion vecs  DIISMaxEq       ....     5
   Bias factor          DIISBfac        ....   1.050
   Max. coefficient     DIISMaxC        ....  10.000
 MO-DIIS                CNVKDIIS        .... off
 Trust-Rad. Augm. Hess. CNVTRAH         .... auto
   Auto Start mean grad. ratio tolernc. ....  1.125000
   Auto Start start iteration           ....    50
   Auto Start num. interpolation iter.  ....    10
   Max. Number of Micro iterations      ....    24
   Max. Number of Macro iterations      .... Maxiter - #DIIS iter
   Number of Davidson start vectors     ....     2
   Converg. threshold    (grad. norm)   ....   1.000e-05
   Grad. Scal. Fac. for Micro threshold ....   0.100
   Minimum threshold for Micro iter.    ....   1.000e-02
   NR start threshold (gradient norm)   ....   1.000e-04
   Initial trust radius                 ....   0.400
   Minimum AH scaling param. (alpha)    ....   1.000
   Maximum AH scaling param. (alpha)    .... 1000.000
   Quad. conv. algorithm                .... NR
   White noise on init. David. guess    .... on
   Maximum white noise                  ....   0.010
   Pseudo random numbers                .... off
   Inactive MOs                         .... canonical
   Orbital update algorithm             .... Taylor
   Preconditioner                       .... Diag
   Full preconditioner red. dimension   ....   250
 SOSCF                 CNVSOSCF           .... on
   Start iteration     SOSCFMaxIt         ....   150
   Startup grad/error  SOSCFStart         ....  0.003300
   Hessian update      SOSCFHessUp        .... L-BFGS
   Autom. constraints  SOSCFAutoConstrain .... off
 Level Shifting         CNVShift        .... on
   Level shift para.    LevelShift      ....    0.2500
   Turn off err/grad.   ShiftErr        ....    0.0010
 Zerner damping         CNVZerner       .... off
 Static damping         CNVDamp         .... on
   Fraction old density DampFac         ....    0.7000
   Max. Damping (<1)    DampMax         ....    0.9800
   Min. Damping (>=0)   DampMin         ....    0.0000
   Turn off err/grad.   DampErr         ....    0.1000

SCF Procedure:
 Maximum # iterations   MaxIter         ....   125
 SCF integral mode      SCFMode         .... Direct
   Integral package                     .... SHARK and LIBINT hybrid scheme
 Reset frequency        DirectResetFreq ....    20
 Integral Threshold     Thresh          ....  2.500e-11 Eh
 Primitive CutOff       TCut            ....  2.500e-12 Eh

Convergence Tolerance:
 Convergence Check Mode ConvCheckMode   .... Total+1el-Energy
 Convergence forced     ConvForced      .... 0
 Energy Change          TolE            ....  1.000e-08 Eh
 1-El. energy change                    ....  1.000e-05 Eh
 Orbital Gradient       TolG            ....  1.000e-05
 Orbital Rotation angle TolX            ....  1.000e-05
 DIIS Error             TolErr          ....  5.000e-07

------------------------------
INITIAL GUESS: MODEL POTENTIAL
------------------------------
Loading Hartree-Fock densities                     ... done
Calculating cut-offs                               ... done
Initializing the effective Hamiltonian             ... done
Setting up the integral package (SHARK)            ... done
Starting the Coulomb interaction                   ... done (   0.1 sec)
Making the grid                                    ... done (   0.4 sec)
Mapping shells                                     ... done
Starting the XC term evaluation                    ... done (   0.0 sec)
  promolecular density results
     # of electrons  =     46.997186913
     EX              =    -36.320763457
     EC              =      0.020800436
     EX+EC           =    -36.299963021
Transforming the Hamiltonian                       ... done (   0.0 sec)
Diagonalizing the Hamiltonian                      ... done (   0.0 sec)
Back transforming the eigenvectors                 ... done (   0.1 sec)
Now organizing SCF variables                       ... done
                      ------------------
                      INITIAL GUESS DONE (   1.0 sec)
                      ------------------
             **** ENERGY FILE WAS UPDATED (opt.en.tmp) ****
Finished Guess after   4.6 sec
Maximum memory used throughout the entire GUESS-calculation: 17.7 MB


           ************************************************************
           *        Program running with 8 parallel MPI-processes     *
           *              working on a common directory               *
           ************************************************************

-------------------------------------------------------------------------------------------
                                      ORCA LEAN-SCF
                              memory conserving SCF solver
-------------------------------------------------------------------------------------------

----------------------------------------D-I-I-S--------------------------------------------
Iteration    Energy (Eh)           Delta-E    RMSDP     MaxDP     DIISErr   Damp  Time(sec)
-------------------------------------------------------------------------------------------
               ***  Starting incremental Fock matrix formation  ***
    1    -269.8312572264968594     0.00e+00  1.97e-03  3.01e-02  1.49e-01  0.700   5.9
    2    -269.9216642604862955    -9.04e-02  1.49e-03  2.32e-02  7.70e-02  0.700   3.7
                               ***Turning on AO-DIIS***
    3    -269.9698291230808991    -4.82e-02  5.91e-04  9.38e-03  3.79e-02  0.700   3.7
    4    -270.0010178258947917    -3.12e-02  1.70e-03  2.89e-02  2.87e-02  0.000   3.6
    5    -270.0812590912657924    -8.02e-02  7.40e-04  1.60e-02  1.51e-02  0.000   3.4
    6    -270.0867442135670444    -5.49e-03  6.75e-04  1.23e-02  9.37e-03  0.000   3.1
    7    -270.0902341916287241    -3.49e-03  3.46e-04  5.05e-03  6.41e-03  0.000   3.4
                              *** Initializing SOSCF ***
---------------------------------------S-O-S-C-F--------------------------------------
Iteration    Energy (Eh)           Delta-E    RMSDP     MaxDP     MaxGrad    Time(sec)
--------------------------------------------------------------------------------------
    8    -270.0915810915771544    -1.35e-03  2.54e-04  3.12e-03  3.01e-03     3.7
               *** Restarting incremental Fock matrix formation ***
    9    -270.0920583600776581    -4.77e-04  1.77e-04  2.29e-03  5.62e-03     3.6
   10    -270.0922853290765033    -2.27e-04  2.52e-04  3.01e-03  1.97e-03     4.4
   11    -270.0923866200630528    -1.01e-04  5.63e-05  8.92e-04  1.25e-03     3.2
   12    -270.0924079909569855    -2.14e-05  2.91e-05  4.96e-04  5.89e-04     4.0
   13    -270.0924130580850715    -5.07e-06  1.29e-05  1.80e-04  2.12e-04     3.1
   14    -270.0924139027392812    -8.45e-07  4.79e-06  7.68e-05  9.37e-05     3.9
   15    -270.0924140157384272    -1.13e-07  2.19e-06  4.81e-05  4.45e-05     3.1
   16    -270.0924140575043566    -4.18e-08  1.29e-06  1.85e-05  1.30e-05     3.8
   17    -270.0924140580610811    -5.57e-10  5.26e-07  9.05e-06  3.60e-06     3.2
                 **** Energy Check signals convergence ****

               *****************************************************
               *                     SUCCESS                       *
               *           SCF CONVERGED AFTER  17 CYCLES          *
               *****************************************************

Recomputing exchange energy using gridx3       ... done (    2.446 sec)
Old exchange energy                            :    -25.772987029 Eh
New exchange energy                            :    -25.772901636 Eh
Exchange energy change after final integration :      0.000085393 Eh
Total energy after final integration           :   -270.092328653 Eh
             **** ENERGY FILE WAS UPDATED (opt.en.tmp) ****

----------------
TOTAL SCF ENERGY
----------------

Total Energy       :       -270.09232865322434 Eh           -7349.58591 eV

Components:
Nuclear Repulsion  :        229.28081946005008 Eh            6239.04828 eV
Electronic Energy  :       -499.37323350672199 Eh          -13588.63652 eV
One Electron Energy:       -820.22660640464812 Eh          -22319.50066 eV
Two Electron Energy:        320.85337289792614 Eh            8730.86415 eV

Virial components:
Potential Energy   :       -539.50527354670135 Eh          -14680.68484 eV
Kinetic Energy     :        269.41294489347695 Eh            7331.09894 eV
Virial Ratio       :          2.00252171906593

DFT components:
N(Alpha)           :       23.999987299142 electrons
N(Beta)            :       22.999985251444 electrons
N(Total)           :       46.999972550586 electrons
E(X)               :      -11.522712313106 Eh       
E(C)               :       -0.711364680910 Eh       
E(XC)              :      -12.234076994016 Eh       

---------------
SCF CONVERGENCE
---------------

  Last Energy change         ...    5.5672e-10  Tolerance :   1.0000e-08
  Last MAX-Density change    ...    9.0481e-06  Tolerance :   1.0000e-07
  Last RMS-Density change    ...    5.2551e-07  Tolerance :   5.0000e-09
  Last DIIS Error            ...    3.0130e-03  Tolerance :   5.0000e-07
  Last Orbital Gradient      ...    3.5998e-06  Tolerance :   1.0000e-05
  Last Orbital Rotation      ...    1.5354e-05  Tolerance :   1.0000e-05


----------------------
UHF SPIN CONTAMINATION
----------------------

Warning: in a DFT calculation there is little theoretical justification to 
         calculate <S**2> as in Hartree-Fock theory. We will do it anyways
         but you should keep in mind that the values have only limited relevance

Expectation value of <S**2>     :     0.768320
Ideal value S*(S+1) for S=0.5   :     0.750000
Deviation                       :     0.018320

----------------
ORBITAL ENERGIES
----------------
                 SPIN UP ORBITALS
  NO   OCC          E(Eh)            E(eV) 
   0   1.0000     -20.053619      -545.6867 
   1   1.0000     -10.820133      -294.4308 
   2   1.0000     -10.810952      -294.1810 
   3   1.0000     -10.810937      -294.1805 
   4   1.0000     -10.808729      -294.1205 
   5   1.0000     -10.807336      -294.0826 
   6   1.0000      -1.234909       -33.6036 
   7   1.0000      -1.027165       -27.9506 
   8   1.0000      -0.874216       -23.7886 
   9   1.0000      -0.865338       -23.5470 
  10   1.0000      -0.715689       -19.4749 
  11   1.0000      -0.652879       -17.7657 
  12   1.0000      -0.624311       -16.9884 
  13   1.0000      -0.609058       -16.5733 
  14   1.0000      -0.579544       -15.7702 
  15   1.0000      -0.540237       -14.7006 
  16   1.0000      -0.498833       -13.5739 
  17   1.0000      -0.477628       -12.9969 
  18   1.0000      -0.461249       -12.5512 
  19   1.0000      -0.443476       -12.0676 
  20   1.0000      -0.439805       -11.9677 
  21   1.0000      -0.431361       -11.7379 
  22   1.0000      -0.385850       -10.4995 
  23   1.0000      -0.304804        -8.2941 
  24   0.0000       0.091708         2.4955 
  25   0.0000       0.104521         2.8442 
  26   0.0000       0.119245         3.2448 
  27   0.0000       0.141272         3.8442 
  28   0.0000       0.146285         3.9806 
  29   0.0000       0.160190         4.3590 
  30   0.0000       0.174603         4.7512 
  31   0.0000       0.189897         5.1674 
  32   0.0000       0.190716         5.1896 
  33   0.0000       0.207978         5.6594 
  34   0.0000       0.242146         6.5891 

                 SPIN DOWN ORBITALS
  NO   OCC          E(Eh)            E(eV) 
   0   1.0000     -20.022899      -544.8508 
   1   1.0000     -10.812593      -294.2256 
   2   1.0000     -10.811320      -294.1910 
   3   1.0000     -10.811234      -294.1886 
   4   1.0000     -10.808722      -294.1203 
   5   1.0000     -10.807326      -294.0823 
   6   1.0000      -1.132590       -30.8193 
   7   1.0000      -1.022200       -27.8155 
   8   1.0000      -0.864906       -23.5353 
   9   1.0000      -0.863393       -23.4941 
  10   1.0000      -0.699393       -19.0314 
  11   1.0000      -0.652466       -17.7545 
  12   1.0000      -0.609658       -16.5896 
  13   1.0000      -0.582585       -15.8529 
  14   1.0000      -0.549074       -14.9411 
  15   1.0000      -0.495545       -13.4845 
  16   1.0000      -0.476456       -12.9650 
  17   1.0000      -0.441616       -12.0170 
  18   1.0000      -0.438937       -11.9441 
  19   1.0000      -0.433402       -11.7935 
  20   1.0000      -0.424067       -11.5395 
  21   1.0000      -0.422237       -11.4897 
  22   1.0000      -0.306434        -8.3385 
  23   0.0000      -0.008011        -0.2180 
  24   0.0000       0.095608         2.6016 
  25   0.0000       0.104748         2.8503 
  26   0.0000       0.121842         3.3155 
  27   0.0000       0.141684         3.8554 
  28   0.0000       0.147302         4.0083 
  29   0.0000       0.161869         4.4047 
  30   0.0000       0.174644         4.7523 
  31   0.0000       0.191173         5.2021 
  32   0.0000       0.195648         5.3238 
  33   0.0000       0.210316         5.7230 
*Only the first 10 virtual orbitals were printed.

                    ********************************
                    * MULLIKEN POPULATION ANALYSIS *
                    ********************************

--------------------------------------------
MULLIKEN ATOMIC CHARGES AND SPIN POPULATIONS
--------------------------------------------
   0 C :   -0.165230    0.000864
   1 C :   -0.165277    0.000859
   2 H :    0.102255    0.000225
   3 C :   -0.069072   -0.018471
   4 H :    0.102285    0.000225
   5 C :   -0.120522    0.294146
   6 H :    0.078315    0.008195
   7 H :    0.068316    0.011873
   8 C :   -0.069019   -0.018468
   9 H :    0.082768   -0.103033
  10 H :    0.083223   -0.007788
  11 H :    0.078319    0.008195
  12 H :    0.068293    0.011866
  13 O :   -0.302171    0.835573
  14 H :    0.227515   -0.024263
Sum of atomic charges         :   -0.0000000
Sum of atomic spin populations:    1.0000000

-----------------------------------------------------
MULLIKEN REDUCED ORBITAL CHARGES AND SPIN POPULATIONS
-----------------------------------------------------
CHARGE
  0 C s       :     3.168744  s :     3.168744
      pz      :     0.951611  p :     2.880786
      px      :     0.965146
      py      :     0.964029
      dz2     :     0.011477  d :     0.107842
      dxz     :     0.009624
      dyz     :     0.032490
      dx2y2   :     0.019659
      dxy     :     0.034592
      f0      :     0.000988  f :     0.007857
      f+1     :     0.000902
      f-1     :     0.000542
      f+2     :     0.001814
      f-2     :     0.001003
      f+3     :     0.001823
      f-3     :     0.000785

  1 C s       :     3.168742  s :     3.168742
      pz      :     0.951600  p :     2.880846
      px      :     0.965226
      py      :     0.964020
      dz2     :     0.011474  d :     0.107832
      dxz     :     0.009620
      dyz     :     0.032502
      dx2y2   :     0.019652
      dxy     :     0.034583
      f0      :     0.000987  f :     0.007857
      f+1     :     0.000902
      f-1     :     0.000543
      f+2     :     0.001814
      f-2     :     0.001003
      f+3     :     0.001823
      f-3     :     0.000785

  2 H s       :     0.858436  s :     0.858436
      pz      :     0.013260  p :     0.037354
      px      :     0.013714
      py      :     0.010380
      dz2     :     0.000343  d :     0.001955
      dxz     :     0.000379
      dyz     :     0.000352
      dx2y2   :     0.000509
      dxy     :     0.000372

  3 C s       :     3.084527  s :     3.084527
      pz      :     0.968594  p :     2.865042
      px      :     0.931310
      py      :     0.965138
      dz2     :     0.018948  d :     0.113325
      dxz     :     0.024235
      dyz     :     0.024706
      dx2y2   :     0.015559
      dxy     :     0.029878
      f0      :     0.000534  f :     0.006178
      f+1     :     0.000925
      f-1     :     0.000768
      f+2     :     0.000635
      f-2     :     0.001386
      f+3     :     0.000933
      f-3     :     0.000998

  4 H s       :     0.858408  s :     0.858408
      pz      :     0.013259  p :     0.037351
      px      :     0.013716
      py      :     0.010376
      dz2     :     0.000343  d :     0.001955
      dxz     :     0.000379
      dyz     :     0.000352
      dx2y2   :     0.000509
      dxy     :     0.000372

  5 C s       :     3.125102  s :     3.125102
      pz      :     1.006729  p :     2.888387
      px      :     0.970691
      py      :     0.910967
      dz2     :     0.020818  d :     0.100793
      dxz     :     0.020944
      dyz     :     0.015068
      dx2y2   :     0.023655
      dxy     :     0.020309
      f0      :     0.000820  f :     0.006240
      f+1     :     0.000724
      f-1     :     0.000579
      f+2     :     0.000581
      f-2     :     0.001012
      f+3     :     0.001289
      f-3     :     0.001235

  6 H s       :     0.879768  s :     0.879768
      pz      :     0.010597  p :     0.039818
      px      :     0.012603
      py      :     0.016618
      dz2     :     0.000329  d :     0.002100
      dxz     :     0.000306
      dyz     :     0.000410
      dx2y2   :     0.000594
      dxy     :     0.000461

  7 H s       :     0.890300  s :     0.890300
      pz      :     0.016531  p :     0.039303
      px      :     0.010694
      py      :     0.012078
      dz2     :     0.000611  d :     0.002081
      dxz     :     0.000469
      dyz     :     0.000493
      dx2y2   :     0.000231
      dxy     :     0.000278

  8 C s       :     3.084483  s :     3.084483
      pz      :     0.968596  p :     2.865021
      px      :     0.931332
      py      :     0.965093
      dz2     :     0.018962  d :     0.113337
      dxz     :     0.024222
      dyz     :     0.024702
      dx2y2   :     0.015560
      dxy     :     0.029892
      f0      :     0.000534  f :     0.006178
      f+1     :     0.000925
      f-1     :     0.000768
      f+2     :     0.000635
      f-2     :     0.001385
      f+3     :     0.000933
      f-3     :     0.000998

  9 H s       :     0.852532  s :     0.852532
      pz      :     0.022425  p :     0.060886
      px      :     0.023790
      py      :     0.014671
      dz2     :     0.000599  d :     0.003814
      dxz     :     0.001240
      dyz     :     0.000314
      dx2y2   :     0.000887
      dxy     :     0.000774

 10 H s       :     0.874910  s :     0.874910
      pz      :     0.019192  p :     0.039757
      px      :     0.011163
      py      :     0.009403
      dz2     :     0.000617  d :     0.002110
      dxz     :     0.000594
      dyz     :     0.000676
      dx2y2   :     0.000060
      dxy     :     0.000163

 11 H s       :     0.879764  s :     0.879764
      pz      :     0.010595  p :     0.039817
      px      :     0.012609
      py      :     0.016613
      dz2     :     0.000329  d :     0.002099
      dxz     :     0.000306
      dyz     :     0.000410
      dx2y2   :     0.000594
      dxy     :     0.000461

 12 H s       :     0.890317  s :     0.890317
      pz      :     0.016535  p :     0.039309
      px      :     0.010695
      py      :     0.012079
      dz2     :     0.000611  d :     0.002082
      dxz     :     0.000469
      dyz     :     0.000493
      dx2y2   :     0.000231
      dxy     :     0.000278

 13 O s       :     3.875893  s :     3.875893
      pz      :     1.310770  p :     4.411822
      px      :     1.156990
      py      :     1.944061
      dz2     :     0.002838  d :     0.014017
      dxz     :     0.008068
      dyz     :     0.001183
      dx2y2   :     0.001761
      dxy     :     0.000168
      f0      :     0.000021  f :     0.000438
      f+1     :     0.000057
      f-1     :     0.000033
      f+2     :     0.000158
      f-2     :     0.000013
      f+3     :     0.000097
      f-3     :     0.000060

 14 H s       :     0.683544  s :     0.683544
      pz      :     0.023622  p :     0.080727
      px      :     0.020165
      py      :     0.036940
      dz2     :     0.001820  d :     0.008214
      dxz     :     0.002284
      dyz     :     0.002140
      dx2y2   :     0.000703
      dxy     :     0.001266


SPIN
  0 C s       :     0.000479  s :     0.000479
      pz      :    -0.000044  p :     0.000410
      px      :     0.000191
      py      :     0.000263
      dz2     :    -0.000038  d :    -0.000022
      dxz     :     0.000037
      dyz     :     0.000080
      dx2y2   :    -0.000033
      dxy     :    -0.000067
      f0      :    -0.000002  f :    -0.000003
      f+1     :    -0.000000
      f-1     :     0.000006
      f+2     :    -0.000001
      f-2     :     0.000001
      f+3     :    -0.000007
      f-3     :     0.000001

  1 C s       :     0.000478  s :     0.000478
      pz      :    -0.000045  p :     0.000406
      px      :     0.000190
      py      :     0.000261
      dz2     :    -0.000038  d :    -0.000021
      dxz     :     0.000037
      dyz     :     0.000080
      dx2y2   :    -0.000033
      dxy     :    -0.000067
      f0      :    -0.000002  f :    -0.000003
      f+1     :    -0.000000
      f-1     :     0.000006
      f+2     :    -0.000001
      f-2     :     0.000001
      f+3     :    -0.000007
      f-3     :     0.000001

  2 H s       :     0.000234  s :     0.000234
      pz      :    -0.000016  p :    -0.000009
      px      :     0.000006
      py      :     0.000001
      dz2     :    -0.000000  d :    -0.000001
      dxz     :     0.000000
      dyz     :    -0.000000
      dx2y2   :    -0.000000
      dxy     :    -0.000000

  3 C s       :    -0.005165  s :    -0.005165
      pz      :    -0.006675  p :    -0.017955
      px      :    -0.003295
      py      :    -0.007986
      dz2     :    -0.000365  d :     0.004382
      dxz     :     0.000135
      dyz     :     0.002555
      dx2y2   :     0.000945
      dxy     :     0.001112
      f0      :     0.000021  f :     0.000267
      f+1     :     0.000038
      f-1     :     0.000020
      f+2     :     0.000038
      f-2     :     0.000048
      f+3     :     0.000007
      f-3     :     0.000096

  4 H s       :     0.000235  s :     0.000235
      pz      :    -0.000016  p :    -0.000009
      px      :     0.000006
      py      :     0.000001
      dz2     :    -0.000000  d :    -0.000001
      dxz     :     0.000000
      dyz     :    -0.000000
      dx2y2   :    -0.000000
      dxy     :    -0.000000

  5 C s       :     0.033410  s :     0.033410
      pz      :     0.102706  p :     0.262476
      px      :     0.144475
      py      :     0.015295
      dz2     :    -0.000427  d :    -0.001556
      dxz     :    -0.000919
      dyz     :     0.000385
      dx2y2   :    -0.000444
      dxy     :    -0.000152
      f0      :     0.000004  f :    -0.000183
      f+1     :    -0.000104
      f-1     :    -0.000020
      f+2     :     0.000087
      f-2     :    -0.000101
      f+3     :    -0.000074
      f-3     :     0.000026

  6 H s       :     0.007980  s :     0.007980
      pz      :     0.000059  p :     0.000216
      px      :     0.000006
      py      :     0.000151
      dz2     :    -0.000000  d :     0.000000
      dxz     :    -0.000002
      dyz     :     0.000002
      dx2y2   :    -0.000003
      dxy     :     0.000003

  7 H s       :     0.011697  s :     0.011697
      pz      :     0.000155  p :     0.000164
      px      :     0.000082
      py      :    -0.000073
      dz2     :     0.000014  d :     0.000012
      dxz     :     0.000000
      dyz     :    -0.000000
      dx2y2   :    -0.000002
      dxy     :     0.000000

  8 C s       :    -0.005159  s :    -0.005159
      pz      :    -0.006674  p :    -0.017960
      px      :    -0.003295
      py      :    -0.007991
      dz2     :    -0.000365  d :     0.004385
      dxz     :     0.000135
      dyz     :     0.002556
      dx2y2   :     0.000944
      dxy     :     0.001114
      f0      :     0.000021  f :     0.000267
      f+1     :     0.000038
      f-1     :     0.000020
      f+2     :     0.000038
      f-2     :     0.000048
      f+3     :     0.000007
      f-3     :     0.000096

  9 H s       :    -0.117587  s :    -0.117587
      pz      :     0.003751  p :     0.014088
      px      :     0.010458
      py      :    -0.000121
      dz2     :     0.000009  d :     0.000465
      dxz     :     0.000268
      dyz     :     0.000009
      dx2y2   :     0.000156
      dxy     :     0.000024

 10 H s       :    -0.010805  s :    -0.010805
      pz      :     0.001101  p :     0.002802
      px      :     0.001675
      py      :     0.000026
      dz2     :     0.000084  d :     0.000214
      dxz     :     0.000089
      dyz     :     0.000013
      dx2y2   :     0.000026
      dxy     :     0.000002

 11 H s       :     0.007980  s :     0.007980
      pz      :     0.000059  p :     0.000216
      px      :     0.000006
      py      :     0.000151
      dz2     :    -0.000000  d :     0.000000
      dxz     :    -0.000002
      dyz     :     0.000002
      dx2y2   :    -0.000003
      dxy     :     0.000003

 12 H s       :     0.011688  s :     0.011688
      pz      :     0.000155  p :     0.000166
      px      :     0.000083
      py      :    -0.000072
      dz2     :     0.000013  d :     0.000012
      dxz     :     0.000000
      dyz     :    -0.000000
      dx2y2   :    -0.000002
      dxy     :     0.000000

 13 O s       :     0.016041  s :     0.016041
      pz      :     0.288154  p :     0.819805
      px      :     0.528461
      py      :     0.003190
      dz2     :     0.000528  d :    -0.000193
      dxz     :    -0.001065
      dyz     :     0.000097
      dx2y2   :     0.000248
      dxy     :    -0.000002
      f0      :     0.000023  f :    -0.000080
      f+1     :    -0.000217
      f-1     :     0.000013
      f+2     :     0.000017
      f-2     :    -0.000026
      f+3     :     0.000064
      f-3     :     0.000047

 14 H s       :    -0.030256  s :    -0.030256
      pz      :     0.002020  p :     0.005018
      px      :     0.005046
      py      :    -0.002048
      dz2     :     0.000795  d :     0.000975
      dxz     :     0.000065
      dyz     :    -0.000074
      dx2y2   :     0.000234
      dxy     :    -0.000046



                     *******************************
                     * LOEWDIN POPULATION ANALYSIS *
                     *******************************

-------------------------------------------
LOEWDIN ATOMIC CHARGES AND SPIN POPULATIONS
-------------------------------------------
   0 C :   -0.010940   -0.000524
   1 C :   -0.010943   -0.000526
   2 H :    0.002660   -0.000060
   3 C :   -0.018850    0.008596
   4 H :    0.002661   -0.000060
   5 C :    0.036320    0.155716
   6 H :    0.016023    0.003189
   7 H :    0.015739    0.006232
   8 C :   -0.018852    0.008590
   9 H :   -0.061500    0.059647
  10 H :    0.000099    0.008666
  11 H :    0.016022    0.003189
  12 H :    0.015737    0.006230
  13 O :    0.168764    0.707471
  14 H :   -0.152940    0.033642

----------------------------------------------------
LOEWDIN REDUCED ORBITAL CHARGES AND SPIN POPULATIONS
----------------------------------------------------
CHARGE
  0 C s       :     2.734951  s :     2.734951
      pz      :     0.894739  p :     2.839885
      px      :     0.904510
      py      :     1.040636
      dz2     :     0.045215  d :     0.393033
      dxz     :     0.046245
      dyz     :     0.106733
      dx2y2   :     0.078409
      dxy     :     0.116431
      f0      :     0.005769  f :     0.043072
      f+1     :     0.004026
      f-1     :     0.004217
      f+2     :     0.008568
      f-2     :     0.003724
      f+3     :     0.010734
      f-3     :     0.006034

  1 C s       :     2.734950  s :     2.734950
      pz      :     0.894756  p :     2.839887
      px      :     0.904506
      py      :     1.040625
      dz2     :     0.045201  d :     0.393033
      dxz     :     0.046252
      dyz     :     0.106753
      dx2y2   :     0.078406
      dxy     :     0.116421
      f0      :     0.005768  f :     0.043072
      f+1     :     0.004025
      f-1     :     0.004219
      f+2     :     0.008569
      f-2     :     0.003723
      f+3     :     0.010735
      f-3     :     0.006033

  2 H s       :     0.819015  s :     0.819015
      pz      :     0.051056  p :     0.150930
      px      :     0.054160
      py      :     0.045714
      dz2     :     0.004762  d :     0.027394
      dxz     :     0.005605
      dyz     :     0.005256
      dx2y2   :     0.005989
      dxy     :     0.005782

  3 C s       :     2.689144  s :     2.689144
      pz      :     0.975083  p :     2.878456
      px      :     0.955377
      py      :     0.947995
      dz2     :     0.065143  d :     0.408356
      dxz     :     0.087006
      dyz     :     0.086701
      dx2y2   :     0.060620
      dxy     :     0.108886
      f0      :     0.004906  f :     0.042894
      f+1     :     0.005670
      f-1     :     0.005995
      f+2     :     0.005183
      f-2     :     0.006779
      f+3     :     0.007168
      f-3     :     0.007192

  4 H s       :     0.819015  s :     0.819015
      pz      :     0.051071  p :     0.150930
      px      :     0.054162
      py      :     0.045698
      dz2     :     0.004765  d :     0.027394
      dxz     :     0.005608
      dyz     :     0.005256
      dx2y2   :     0.005986
      dxy     :     0.005779

  5 C s       :     2.704227  s :     2.704227
      pz      :     0.973321  p :     2.824246
      px      :     0.915243
      py      :     0.935683
      dz2     :     0.068853  d :     0.393524
      dxz     :     0.089291
      dyz     :     0.057972
      dx2y2   :     0.089894
      dxy     :     0.087514
      f0      :     0.004328  f :     0.041683
      f+1     :     0.003501
      f-1     :     0.004428
      f+2     :     0.007089
      f-2     :     0.007365
      f+3     :     0.006316
      f-3     :     0.008656

  6 H s       :     0.807974  s :     0.807974
      pz      :     0.044646  p :     0.147384
      px      :     0.048497
      py      :     0.054241
      dz2     :     0.004236  d :     0.028619
      dxz     :     0.004514
      dyz     :     0.005637
      dx2y2   :     0.007355
      dxy     :     0.006877

  7 H s       :     0.807357  s :     0.807357
      pz      :     0.059244  p :     0.148577
      px      :     0.045837
      py      :     0.043495
      dz2     :     0.007988  d :     0.028327
      dxz     :     0.007120
      dyz     :     0.006824
      dx2y2   :     0.002850
      dxy     :     0.003546

  8 C s       :     2.689144  s :     2.689144
      pz      :     0.975082  p :     2.878459
      px      :     0.955393
      py      :     0.947984
      dz2     :     0.065174  d :     0.408355
      dxz     :     0.086996
      dyz     :     0.086676
      dx2y2   :     0.060619
      dxy     :     0.108889
      f0      :     0.004906  f :     0.042894
      f+1     :     0.005671
      f-1     :     0.005995
      f+2     :     0.005183
      f-2     :     0.006780
      f+3     :     0.007166
      f-3     :     0.007193

  9 H s       :     0.725263  s :     0.725263
      pz      :     0.103513  p :     0.298427
      px      :     0.146311
      py      :     0.048603
      dz2     :     0.006839  d :     0.037810
      dxz     :     0.012361
      dyz     :     0.003220
      dx2y2   :     0.007622
      dxy     :     0.007768

 10 H s       :     0.818549  s :     0.818549
      pz      :     0.068650  p :     0.152741
      px      :     0.044843
      py      :     0.039248
      dz2     :     0.009656  d :     0.028611
      dxz     :     0.009041
      dyz     :     0.007494
      dx2y2   :     0.000874
      dxy     :     0.001545

 11 H s       :     0.807974  s :     0.807974
      pz      :     0.044641  p :     0.147384
      px      :     0.048508
      py      :     0.054236
      dz2     :     0.004235  d :     0.028619
      dxz     :     0.004516
      dyz     :     0.005634
      dx2y2   :     0.007357
      dxy     :     0.006877

 12 H s       :     0.807359  s :     0.807359
      pz      :     0.059249  p :     0.148578
      px      :     0.045834
      py      :     0.043495
      dz2     :     0.007989  d :     0.028327
      dxz     :     0.007121
      dyz     :     0.006824
      dx2y2   :     0.002849
      dxy     :     0.003544

 13 O s       :     3.475429  s :     3.475429
      pz      :     1.368416  p :     4.325243
      px      :     1.139580
      py      :     1.817247
      dz2     :     0.003764  d :     0.028774
      dxz     :     0.018234
      dyz     :     0.000222
      dx2y2   :     0.006403
      dxy     :     0.000151
      f0      :     0.000202  f :     0.001790
      f+1     :     0.000574
      f-1     :     0.000070
      f+2     :     0.000578
      f-2     :     0.000218
      f+3     :     0.000117
      f-3     :     0.000030

 14 H s       :     0.707466  s :     0.707466
      pz      :     0.143690  p :     0.351395
      px      :     0.093611
      py      :     0.114094
      dz2     :     0.022505  d :     0.094078
      dxz     :     0.024824
      dyz     :     0.024128
      dx2y2   :     0.008211
      dxy     :     0.014410


SPIN
  0 C s       :     0.000045  s :     0.000045
      pz      :    -0.000058  p :    -0.000097
      px      :    -0.000054
      py      :     0.000015
      dz2     :    -0.000254  d :    -0.000422
      dxz     :     0.000009
      dyz     :     0.000177
      dx2y2   :    -0.000271
      dxy     :    -0.000082
      f0      :    -0.000017  f :    -0.000050
      f+1     :    -0.000016
      f-1     :     0.000019
      f+2     :    -0.000005
      f-2     :    -0.000000
      f+3     :    -0.000030
      f-3     :    -0.000000

  1 C s       :     0.000045  s :     0.000045
      pz      :    -0.000059  p :    -0.000100
      px      :    -0.000056
      py      :     0.000015
      dz2     :    -0.000254  d :    -0.000421
      dxz     :     0.000009
      dyz     :     0.000178
      dx2y2   :    -0.000271
      dxy     :    -0.000082
      f0      :    -0.000017  f :    -0.000049
      f+1     :    -0.000016
      f-1     :     0.000019
      f+2     :    -0.000005
      f-2     :    -0.000000
      f+3     :    -0.000030
      f-3     :    -0.000000

  2 H s       :     0.000006  s :     0.000006
      pz      :    -0.000046  p :    -0.000063
      px      :    -0.000017
      py      :     0.000000
      dz2     :    -0.000002  d :    -0.000003
      dxz     :     0.000001
      dyz     :    -0.000002
      dx2y2   :     0.000001
      dxy     :    -0.000002

  3 C s       :    -0.001046  s :    -0.001046
      pz      :    -0.002353  p :    -0.006798
      px      :    -0.001572
      py      :    -0.002873
      dz2     :     0.000376  d :     0.014837
      dxz     :     0.000729
      dyz     :     0.006615
      dx2y2   :     0.002608
      dxy     :     0.004509
      f0      :     0.000119  f :     0.001603
      f+1     :     0.000276
      f-1     :     0.000207
      f+2     :     0.000202
      f-2     :     0.000147
      f+3     :     0.000078
      f-3     :     0.000573

  4 H s       :     0.000007  s :     0.000007
      pz      :    -0.000047  p :    -0.000063
      px      :    -0.000017
      py      :     0.000000
      dz2     :    -0.000002  d :    -0.000003
      dxz     :     0.000001
      dyz     :    -0.000002
      dx2y2   :     0.000001
      dxy     :    -0.000002

  5 C s       :     0.010793  s :     0.010793
      pz      :     0.057650  p :     0.159842
      px      :     0.095511
      py      :     0.006682
      dz2     :    -0.001332  d :    -0.013922
      dxz     :    -0.007192
      dyz     :    -0.000181
      dx2y2   :    -0.004050
      dxy     :    -0.001168
      f0      :     0.000000  f :    -0.000997
      f+1     :    -0.000223
      f-1     :    -0.000062
      f+2     :    -0.000373
      f-2     :    -0.000160
      f+3     :    -0.000173
      f-3     :    -0.000006

  6 H s       :     0.004044  s :     0.004044
      pz      :    -0.000072  p :    -0.000700
      px      :    -0.000130
      py      :    -0.000499
      dz2     :    -0.000018  d :    -0.000155
      dxz     :    -0.000012
      dyz     :    -0.000029
      dx2y2   :    -0.000087
      dxy     :    -0.000009

  7 H s       :     0.006152  s :     0.006152
      pz      :    -0.000111  p :     0.000159
      px      :     0.000230
      py      :     0.000040
      dz2     :     0.000008  d :    -0.000080
      dxz     :    -0.000025
      dyz     :    -0.000036
      dx2y2   :    -0.000012
      dxy     :    -0.000015

  8 C s       :    -0.001046  s :    -0.001046
      pz      :    -0.002352  p :    -0.006802
      px      :    -0.001574
      py      :    -0.002876
      dz2     :     0.000375  d :     0.014836
      dxz     :     0.000728
      dyz     :     0.006614
      dx2y2   :     0.002605
      dxy     :     0.004512
      f0      :     0.000119  f :     0.001603
      f+1     :     0.000276
      f-1     :     0.000207
      f+2     :     0.000202
      f-2     :     0.000147
      f+3     :     0.000078
      f-3     :     0.000573

  9 H s       :    -0.034673  s :    -0.034673
      pz      :     0.026662  p :     0.088533
      px      :     0.062155
      py      :    -0.000285
      dz2     :     0.000429  d :     0.005787
      dxz     :     0.002938
      dyz     :     0.000087
      dx2y2   :     0.002172
      dxy     :     0.000161

 10 H s       :    -0.005273  s :    -0.005273
      pz      :     0.004151  p :     0.011251
      px      :     0.006827
      py      :     0.000274
      dz2     :     0.001067  d :     0.002688
      dxz     :     0.001232
      dyz     :     0.000113
      dx2y2   :     0.000261
      dxy     :     0.000015

 11 H s       :     0.004044  s :     0.004044
      pz      :    -0.000072  p :    -0.000700
      px      :    -0.000130
      py      :    -0.000499
      dz2     :    -0.000018  d :    -0.000155
      dxz     :    -0.000012
      dyz     :    -0.000029
      dx2y2   :    -0.000087
      dxy     :    -0.000009

 12 H s       :     0.006151  s :     0.006151
      pz      :    -0.000111  p :     0.000158
      px      :     0.000229
      py      :     0.000040
      dz2     :     0.000008  d :    -0.000080
      dxz     :    -0.000025
      dyz     :    -0.000036
      dx2y2   :    -0.000012
      dxy     :    -0.000015

 13 O s       :     0.010264  s :     0.010264
      pz      :     0.246891  p :     0.698747
      px      :     0.447729
      py      :     0.004126
      dz2     :    -0.000085  d :    -0.001516
      dxz     :    -0.000738
      dyz     :    -0.000011
      dx2y2   :    -0.000688
      dxy     :     0.000006
      f0      :     0.000064  f :    -0.000024
      f+1     :    -0.000185
      f-1     :    -0.000014
      f+2     :    -0.000006
[...]
     37       0.081297   0.021240  -0.359422   0.018033   0.101432  -0.036624
     38      -0.068302  -0.045352   0.773700  -0.032353  -0.176092   0.070368
     39       0.001665   0.000079   0.000224  -0.000254  -0.000052  -0.000144
     40      -0.000004  -0.000098   0.000084  -0.000217   0.000030   0.000127
     41      -0.001877   0.000246   0.000018  -0.000065  -0.000149   0.000798
     42      -0.022518   0.000868  -0.004319   0.003152  -0.000402   0.002291
     43       0.003488   0.000248  -0.001403   0.001730  -0.000308  -0.001051
     44       0.016696  -0.003503  -0.000370   0.000540   0.003787  -0.006289
                 42         43         44    
      0       0.033030   0.040100   0.000289
      1       0.029552   0.045803   0.000288
      2       0.029720   0.036073   0.000320
      3      -0.039635   0.033585  -0.000275
      4       0.037200  -0.039861   0.000168
      5      -0.035823   0.030448  -0.000125
      6      -0.390301  -0.463839  -0.003205
      7      -0.366174  -0.442543  -0.005818
      8      -0.349894  -0.416038  -0.004559
      9       0.001533  -0.001152  -0.000035
     10       0.001550  -0.002164  -0.000125
     11       0.000659  -0.001600  -0.000046
     12       0.464733  -0.384957   0.003262
     13      -0.436469   0.370326  -0.000228
     14       0.420656  -0.347553   0.000827
     15      -0.000258  -0.001056  -0.000450
     16      -0.000355  -0.000099  -0.000001
     17      -0.000810  -0.000640   0.000510
     18      -0.010627   0.009794  -0.000065
     19      -0.011572   0.011674   0.001734
     20       0.003683  -0.002453   0.000118
     21       0.002606  -0.004391   0.002531
     22      -0.002145   0.005550  -0.001891
     23      -0.006089   0.009977  -0.001136
     24      -0.000383  -0.001521   0.000136
     25       0.000684   0.002488  -0.000053
     26      -0.001214  -0.001720  -0.000595
     27      -0.001217   0.002177   0.005584
     28      -0.000976   0.000431  -0.001121
     29      -0.000367  -0.000276  -0.007803
     30       0.003992   0.001636   0.005159
     31      -0.000842   0.000393   0.002497
     32       0.010451   0.002760   0.002647
     33       0.001750   0.012345  -0.001454
     34       0.000710  -0.014657   0.000876
     35       0.000440  -0.005336   0.001606
     36      -0.005014  -0.007463  -0.001228
     37      -0.003577  -0.006472  -0.000677
     38       0.008870   0.014282   0.003728
     39       0.000357   0.000190  -0.038924
     40      -0.000075   0.000014   0.000041
     41       0.000467   0.000200  -0.049458
     42      -0.003528  -0.001887   0.611203
     43       0.004443   0.001603   0.000682
     44      -0.006171  -0.004007   0.788811


-----------
IR SPECTRUM
-----------

 Mode   freq       eps      Int      T**2         TX        TY        TZ
       cm**-1   L/(mol*cm) km/mol    a.u.
----------------------------------------------------------------------------
  8:     18.92   0.002403   12.14  0.039637  ( 0.001787 -0.197930 -0.021388)
  9:    100.48   0.001664    8.41  0.005168  ( 0.002315 -0.071579 -0.006279)
 10:    220.85   0.005097   25.76  0.007202  ( 0.072792  0.032381 -0.029235)
 11:    371.63   0.000095    0.48  0.000080  ( 0.000935 -0.008870 -0.000354)
 12:    566.10   0.001727    8.73  0.000952  ( 0.026368 -0.007965 -0.013903)
 13:    695.82   0.004167   21.06  0.001869  ( 0.017032  0.006414 -0.039211)
 14:    760.89   0.000114    0.58  0.000047  (-0.003183  0.001588  0.005842)
 15:    784.81   0.000192    0.97  0.000076  ( 0.000580 -0.008708 -0.000355)
 16:    882.74   0.003143   15.88  0.001111  ( 0.030149  0.004447 -0.013498)
 17:    888.65   0.004860   24.56  0.001707  ( 0.036822 -0.007318 -0.017239)
 18:    927.01   0.001670    8.44  0.000562  (-0.000397 -0.023699 -0.000457)
 19:    933.54   0.000533    2.69  0.000178  ( 0.009627 -0.008835 -0.002741)
 20:    958.73   0.000167    0.84  0.000054  (-0.005505 -0.004002  0.002824)
 21:    987.03   0.000335    1.69  0.000106  ( 0.003807 -0.001805 -0.009385)
 22:   1048.54   0.000184    0.93  0.000055  (-0.000076 -0.007393 -0.000444)
 23:   1079.95   0.004491   22.69  0.001298  (-0.035631  0.001659  0.005032)
 24:   1128.48   0.001509    7.63  0.000417  (-0.013710  0.012900  0.007931)
 25:   1141.74   0.000144    0.73  0.000039  (-0.004244  0.004030  0.002249)
 26:   1195.78   0.025137  127.03  0.006560  (-0.073327  0.004227  0.034136)
 27:   1216.18   0.293412  1482.79  0.075288  (-0.248271 -0.003888  0.116766)
 28:   1246.59   0.005702   28.81  0.001427  ( 0.032543 -0.001377 -0.019141)
 29:   1248.27   0.000664    3.36  0.000166  ( 0.011264  0.001779 -0.006001)
 30:   1314.41   0.002170   10.97  0.000515  ( 0.019266 -0.008525 -0.008451)
 31:   1349.75   0.019434   98.21  0.004493  ( 0.063097  0.000762 -0.022612)
 32:   1382.79   0.000559    2.82  0.000126  ( 0.001010 -0.011181 -0.000007)
 33:   1465.70   0.068670  347.03  0.014621  (-0.112553  0.000579  0.044184)
 34:   1485.88   0.003023   15.28  0.000635  (-0.020133 -0.013711  0.006447)
 35:   1500.66   0.009293   46.96  0.001932  (-0.042317  0.003253  0.011452)
 36:   1673.71   0.000318    1.61  0.000059  ( 0.003248  0.000052  0.006979)
 37:   3020.32   0.006398   32.33  0.000661  (-0.005639  0.019246  0.016087)
 38:   3027.21   0.006569   33.20  0.000677  ( 0.005068  0.021220 -0.014183)
 39:   3086.77   0.003292   16.64  0.000333  ( 0.009190  0.015068 -0.004614)
 40:   3100.10   0.003007   15.20  0.000303  (-0.011354  0.012054  0.005335)
 41:   3120.12   0.006433   32.51  0.000643  (-0.008960 -0.000060 -0.023729)
 42:   3197.61   0.001184    5.99  0.000116  (-0.001452  0.010564 -0.001373)
 43:   3223.41   0.003697   18.68  0.000358  ( 0.015448  0.001016  0.010875)
 44:   3780.24   0.005873   29.68  0.000485  ( 0.021537  0.000365  0.004563)

* The epsilon (eps) is given for a Dirac delta lineshape.
** The dipole moment derivative (T) already includes vibrational overlap.

The first frequency considered to be a vibration is 8
The total number of vibrations considered is 37


--------------------------
THERMOCHEMISTRY AT 298.15K
--------------------------

Temperature         ...   298.15 K
Pressure            ...     1.00 atm
Total Mass          ...    85.13 AMU
Quasi RRHO          ...     True
Cut-Off Frequency   ...     1.00 cm^-1

Throughout the following assumptions are being made:
  (1) The electronic state is orbitally nondegenerate
      but the spin degeneracy is treated
  (2) There are no thermally accessible electronically excited states
  (3) Hindered rotations indicated by low frequency modes are not
      treated as such but are treated as vibrations and this may
      cause some error
  (4) All equations used are the standard statistical mechanics
      equations for an ideal gas
  (5) All vibrations are strictly harmonic

freq.      18.92  E(vib)   ...       0.57 
freq.     100.48  E(vib)   ...       0.46 
freq.     220.85  E(vib)   ...       0.33 
freq.     371.63  E(vib)   ...       0.21 
freq.     566.10  E(vib)   ...       0.11 
freq.     695.82  E(vib)   ...       0.07 
freq.     760.89  E(vib)   ...       0.06 
freq.     784.81  E(vib)   ...       0.05 
freq.     882.74  E(vib)   ...       0.04 
freq.     888.65  E(vib)   ...       0.04 
freq.     927.01  E(vib)   ...       0.03 
freq.     933.54  E(vib)   ...       0.03 
freq.     958.73  E(vib)   ...       0.03 
freq.     987.03  E(vib)   ...       0.02 
freq.    1048.54  E(vib)   ...       0.02 
freq.    1079.95  E(vib)   ...       0.02 
freq.    1128.48  E(vib)   ...       0.01 
freq.    1141.74  E(vib)   ...       0.01 
freq.    1195.78  E(vib)   ...       0.01 
freq.    1216.18  E(vib)   ...       0.01 
freq.    1246.59  E(vib)   ...       0.01 
freq.    1248.27  E(vib)   ...       0.01 
freq.    1314.41  E(vib)   ...       0.01 
freq.    1349.75  E(vib)   ...       0.01 
freq.    1382.79  E(vib)   ...       0.01 
freq.    1465.70  E(vib)   ...       0.00 
freq.    1485.88  E(vib)   ...       0.00 
freq.    1500.66  E(vib)   ...       0.00 
freq.    1673.71  E(vib)   ...       0.00 
freq.    3020.32  E(vib)   ...       0.00 
freq.    3027.21  E(vib)   ...       0.00 
freq.    3086.77  E(vib)   ...       0.00 
freq.    3100.10  E(vib)   ...       0.00 
freq.    3120.12  E(vib)   ...       0.00 
freq.    3197.61  E(vib)   ...       0.00 
freq.    3223.41  E(vib)   ...       0.00 
freq.    3780.24  E(vib)   ...       0.00 

------------
INNER ENERGY
------------

The inner energy is: U= E(el) + E(ZPE) + E(vib) + E(rot) + E(trans)
    E(el)   - is the total energy from the electronic structure calculation
              = E(kin-el) + E(nuc-el) + E(el-el) + E(nuc-nuc)
    E(ZPE)  - the the zero temperature vibrational energy from the frequency calculation
    E(vib)  - the the finite temperature correction to E(ZPE) due to population
              of excited vibrational states
    E(rot)  - is the rotational thermal energy
    E(trans)- is the translational thermal energy

Summary of contributions to the inner energy U:
Electronic energy                ...   -270.65417183 Eh
Zero point energy                ...      0.12332046 Eh      77.38 kcal/mol
Thermal vibrational correction   ...      0.00346912 Eh       2.18 kcal/mol
Thermal rotational correction    ...      0.00141627 Eh       0.89 kcal/mol
Thermal translational correction ...      0.00141627 Eh       0.89 kcal/mol
-----------------------------------------------------------------------
Total thermal energy                   -270.52454972 Eh


Summary of corrections to the electronic energy:
(perhaps to be used in another calculation)
Total thermal correction                  0.00630166 Eh       3.95 kcal/mol
Non-thermal (ZPE) correction              0.12332046 Eh      77.38 kcal/mol
-----------------------------------------------------------------------
Total correction                          0.12962212 Eh      81.34 kcal/mol


--------
ENTHALPY
--------

The enthalpy is H = U + kB*T
                kB is Boltzmann's constant
Total thermal energy              ...   -270.52454972 Eh 
Thermal Enthalpy correction       ...      0.00094421 Eh       0.59 kcal/mol
-----------------------------------------------------------------------
Total Enthalpy                    ...   -270.52360551 Eh


Note: Only C1 symmetry has been detected, increase convergence thresholds 
      if your molecule has a higher symmetry. Symmetry factor of 1.0 is   
      used for the rotational entropy correction. 
 

Note: Rotational entropy computed according to Herzberg 
Infrared and Raman Spectra, Chapter V,1, Van Nostrand Reinhold, 1945 
Point Group:  C1, Symmetry Number:   1  
Rotational constants in cm-1:     0.169126     0.077513     0.068345 

Vibrational entropy computed according to the QRRHO of S. Grimme
Chem.Eur.J. 2012 18 9955 using a reference frequency of 100.0 cm-1


-------
ENTROPY
-------

The entropy contributions are T*S = T*(S(el)+S(vib)+S(rot)+S(trans))
     S(el)   - electronic entropy
     S(vib)  - vibrational entropy
     S(rot)  - rotational entropy
     S(trans)- translational entropy
The entropies will be listed as multiplied by the temperature to get
units of energy

Electronic entropy                ...      0.00065446 Eh      0.41 kcal/mol
Vibrational entropy               ...      0.00629118 Eh      3.95 kcal/mol
Rotational entropy                ...      0.01282376 Eh      8.05 kcal/mol
Translational entropy             ...      0.01864317 Eh     11.70 kcal/mol
-----------------------------------------------------------------------
Final entropy term                ...      0.03841256 Eh     24.10 kcal/mol

In case the symmetry of your molecule has not been determined correctly
or in case you have a reason to use a different symmetry number we print 
out the resulting rotational entropy values for sn=1,12:

 non-linear molecules -----------------------------------
|  sn= 1 | S(rot)=       0.01282376 Eh      8.05 kcal/mol|
|  sn= 2 | S(rot)=       0.01216930 Eh      7.64 kcal/mol|
|  sn= 3 | S(rot)=       0.01178647 Eh      7.40 kcal/mol|
|  sn= 4 | S(rot)=       0.01151484 Eh      7.23 kcal/mol|
|  sn= 5 | S(rot)=       0.01130416 Eh      7.09 kcal/mol|
|  sn= 6 | S(rot)=       0.01113201 Eh      6.99 kcal/mol|
|  sn= 7 | S(rot)=       0.01098646 Eh      6.89 kcal/mol|
|  sn= 8 | S(rot)=       0.01086039 Eh      6.81 kcal/mol|
|  sn= 9 | S(rot)=       0.01074918 Eh      6.75 kcal/mol|
|  sn=10 | S(rot)=       0.01064970 Eh      6.68 kcal/mol|
|  sn=11 | S(rot)=       0.01055971 Eh      6.63 kcal/mol|
|  sn=12 | S(rot)=       0.01047755 Eh      6.57 kcal/mol|
 linear molecules ---------------------------------------
|  Dinfh | S(rot)=       0.00785922 Eh      4.93 kcal/mol|
|  Cinfv | S(rot)=       0.00851367 Eh      5.34 kcal/mol|
 --------------------------------------------------------


-------------------
GIBBS FREE ENERGY
-------------------

The Gibbs free energy is G = H - T*S

Total enthalpy                    ...   -270.52360551 Eh 
Total entropy correction          ...     -0.03841256 Eh    -24.10 kcal/mol
-----------------------------------------------------------------------
Final Gibbs free energy         ...   -270.56201806 Eh

For completeness - the Gibbs free energy minus the electronic energy
G-E(el)                           ...      0.09215377 Eh     57.83 kcal/mol



--------------------------------
SUGGESTED CITATIONS FOR THIS RUN
--------------------------------

Below you find a list of papers that are relevant to this ORCA run
We neither can nor want to force you to cite these papers, but we appreciate if you do
You receive ORCA, which is the product of decades of hard work by many enthusiastic individuals, for free
The only thing we kindly ask in return is that you cite our papers,
We deeply appreciate it, if you show your appreciation for ORCA by not just citing the generic ORCA reference.

Please note that relegating all ORCA citations to the supporting information does *not* help us.
SI sections are not indexed - citations you put there will not count into any citation statistics
But we need these citations in order to attract the funding resources that allow us to do what we are doing

Therefore, if you are a happy ORCA user, please consider citing a few of the papers listed below in the main body of your paper

In addition to the list printed below, the program has created the file opt.bibtex that contains the list in bibtex format
You can import this file easily into all common literature databanks and citation aid programs

It goes without saying that in many instances, there are alternative algorithms to achieve similar
results as the ones you have gotten from ORCA. It is, of course, also the case that in some instances
ORCA just re-implements algorithms worked out by others. We are fully aware of that and we are also
fully appreciative of our colleagues work. Hence this citation list should not be read as indicating
that the listed papers, which are focused on our own work, are the only ones worth citing. It simply
meant to make it easier for users to cite ORCA specific papers. It is not a substitute for doing your
own literature research and citing the relevant literature in a scientifically appropriate manner.

List of essential papers. We consider these as the minimum necessary citations

  1. Neese, F.
     Software update: the ORCA program system, version 6.0
     WIRES Comput. Molec. Sci. 2025 15(1), e70019
     doi.org/10.1002/wcms.70019

List of papers to cite with high priority. The work reported in these papers was absolutely
necessary for this run to complete.
Our perspective: the developers of density functionals and basis sets usually get cited in chemistry papers
Good! But without the algorithms to do something with them, the functionals or basis sets would not do anything.
Hence, in our opinion, the algorithm design and method developments papers are equally worthy of getting cited

  1. Neese, F.
     An improvement of the resolution of the identity approximation for the formation of the Coulomb matrix
     J. Comp. Chem. 2003 24(14), 1740-1747
     doi.org/10.1002/jcc.10318
  2. Neese, F.; Schwabe, T.; Grimme, S.
     Analytic derivatives for perturbatively corrected 'double hybrid' density functionals: Theory, implementation, and applications
     J. Chem. Phys. 2007 126(12), Art. No. 124115
     doi.org/10.1063/1.2712433
  3. Neese, F.; Wennmohs, F.; Hansen, A.; Becker, U.
     Efficient, approximate and parallel Hartree-Fock and hybrid DFT calculations. A 'chain-of-spheres' algorithm for the Hartree-Fock exchange
     Chem. Phys. 2009 356(1-3), 98-109
     doi.org/10.1016/j.chemphys.2008.10.036
  4. Kossmann, S.; Neese, F.
     Efficient Structure Optimization with Second-Order Many-Body Perturbation Theory: The RIJCOSX-MP2 Method
     J. Theo. Comp. Chem. 2010 6 , 2325-2338
     doi.org/10.1021/ct100199k
  5. Caldeweyher, E.; Bannwarth, C.; Grimme, S.
     Extension of the D3 dispersion coefficient model
     J. Chem. Phys. 2017 147 , 034112
     doi.org/10.1063/1.4993215
  6. Caldeweyher, E.; Ehlert, S.; Hansen, A.; Neugebauer, H.; Spicher, S.; Bannwarth, C.; Grimme, S.
     A generally applicable atomic-charge dependent London dispersion correction
     J. Chem. Phys. 2019 150 , 154122
     doi.org/10.1063/1.5090222
  7. Helmich-Paris, B.; de Souza, B.; Neese, F.; Izsák, R.
     An improved chain of spheres for exchange algorithm
     J. Chem. Phys. 2021 155(10), 104109
     doi.org/10.1063/5.0058766
  8. Neese, F.
     The SHARK Integral Generation and Digestion System
     J. Comp. Chem. 2022 44(3), 381
     doi.org/10.1002/jcc.26942

List of suggested additional citations. These are papers that are important in the 'surrounding' of 
of this run, or papers that preceded the highly important papers. If you like your results we are grateful for a citation.

  1. Izsak, R.; Neese, F.
     An overlap fitted chain of spheres exchange method
     J. Chem. Phys. 2011 135 , 144105
     doi.org/10.1063/1.3646921
  2. Izsak, R.; Hansen, A.; Neese, F.
     The resolution of identity and chain of spheres approximations for the LPNO-CCSD singles Fock term
     Molec. Phys. 2012 110 , 2413-2417
     doi.org/10.1080/00268976.2012.687466
  3. Neese, F.
     The ORCA program system
     WIRES Comput. Molec. Sci. 2012 2(1), 73-78
     doi.org/10.1002/wcms.81
  4. Izsak, R.; Neese, F.; Klopper, W.
     Robust fitting techniques in the chain of spheres approximation to the Fock exchange: The role of the complementary space
     J. Chem. Phys. 2013 139 , 
     doi.org/10.1063/1.4819264
  5. Neese, F.
     Software update: the ORCA program system, version 4.0
     WIRES Comput. Molec. Sci. 2018 8(1), 1-6
     doi.org/10.1002/wcms.1327
  6. Neese, F.; Wennmohs, F.; Becker, U.; Riplinger, C.
     The ORCA quantum chemistry program package
     J. Chem. Phys. 2020 152(22), 224108
     doi.org/10.1063/5.0004608
  7. Neese, F.
     Software update: The ORCA program system—Version 5.0
     WIRES Comput. Molec. Sci. 2022 12(1), e1606
     doi.org/10.1002/wcms.1606

List of optional additional citations

  1. Neese, F.
     Approximate second-order SCF convergence for spin unrestricted wavefunctions
     Chem. Phys. Lett. 2000 325(1-3), 93-98
     doi.org/10.1016/s0009-2614(00)00662-x

Timings for individual modules:

Sum of individual times          ...    10560.850 sec (= 176.014 min)
Startup calculation              ...      138.107 sec (=   2.302 min)   1.3 %
SCF iterations                   ...     1128.942 sec (=  18.816 min)  10.7 %
Property calculations            ...        2.428 sec (=   0.040 min)   0.0 %
MP2 module                       ...     1869.183 sec (=  31.153 min)  17.7 %
Geometry relaxation              ...        1.976 sec (=   0.033 min)   0.0 %
Numerical frequency calculation  ...     7420.214 sec (= 123.670 min)  70.3 %
                             ****ORCA TERMINATED NORMALLY****
TOTAL RUN TIME: 0 days 2 hours 52 minutes 48 seconds 305 msec
